/*--------------------------------*- C++ -*----------------------------------*\
  =========                 |
  \\      /  F ield         | OpenFOAM: The Open Source CFD Toolbox
   \\    /   O peration     | Website:  https://openfoam.org
    \\  /    A nd           | Version:  6
     \\/     M anipulation  |
\*---------------------------------------------------------------------------*/
FoamFile
{
    version     2.0;
    format      ascii;
    class       volVectorField;
    location    "0.0339621151";
    object      q;
}
// * * * * * * * * * * * * * * * * * * * * * * * * * * * * * * * * * * * * * //

dimensions      [1 0 -3 0 0 0 0];

internalField   nonuniform List<vector> 
3600
(
(0.00279063051869 0.00579402820281 0)
(0.00322083767373 0.00593924771538 0)
(0.00351239023592 0.00601035059121 0)
(0.00373515394566 0.00599401747269 0)
(0.00391449933856 0.0059297474481 0)
(0.00408432264851 0.00584325919877 0)
(0.00425349571268 0.00574268094544 0)
(0.00442216242994 0.00561678666047 0)
(0.00458585726584 0.0054527019322 0)
(0.00473871047214 0.00525159807217 0)
(0.00487573432561 0.00502762110299 0)
(0.00499545031442 0.00479525045839 0)
(0.00510127937145 0.00455974992543 0)
(0.00520081059871 0.00431803417119 0)
(0.00530343959082 0.00406569068488 0)
(0.00541751444372 0.00380282004234 0)
(0.0055479482225 0.00353542717654 0)
(0.00569482633065 0.00327283547415 0)
(0.00585308260262 0.00302261075849 0)
(0.00601304797542 0.00278496862925 0)
(0.00616184214906 0.0025495326245 0)
(0.00628593435355 0.00229709285637 0)
(0.00637501238015 0.00200671974303 0)
(0.00642626235194 0.00166544656991 0)
(0.00644701661369 0.00127584417079 0)
(0.00645368400224 0.00085733463352 0)
(0.00646642263194 0.000439820050847 0)
(0.00650136468417 5.19603323666e-05 0)
(0.00656386571769 -0.000290542808187 0)
(0.00664611080308 -0.000590809555539 0)
(0.00264339822658 0.00547177247826 0)
(0.00303846930588 0.00567837287915 0)
(0.00336599696141 0.00581348154953 0)
(0.00365172959169 0.00583037459116 0)
(0.00389406170196 0.00577104661773 0)
(0.00412232143477 0.00567856474273 0)
(0.00434851788121 0.00557206845933 0)
(0.00457626550719 0.00544562598824 0)
(0.00480176840638 0.00528910739363 0)
(0.00501715662058 0.00510433723687 0)
(0.00521415660027 0.00490254033808 0)
(0.00538810154703 0.00469190067809 0)
(0.00554012630653 0.00447066086002 0)
(0.00567672554418 0.00423099520219 0)
(0.00580743093891 0.0039675382955 0)
(0.00594192760421 0.0036831193737 0)
(0.0060875902022 0.00338920211715 0)
(0.00624786444637 0.00310210487245 0)
(0.00642144297874 0.00283669582342 0)
(0.00660202020567 0.00259942386572 0)
(0.00677874304486 0.00238331548461 0)
(0.00693795219356 0.00216775320385 0)
(0.00706666468178 0.00192440622046 0)
(0.00715718652215 0.00162796505983 0)
(0.00721095619986 0.00126760806715 0)
(0.00723934006007 0.000853841533377 0)
(0.00726019661934 0.000416602753066 0)
(0.00729112292961 -5.66727562798e-06 0)
(0.00734222224815 -0.000381510739968 0)
(0.00741184823968 -0.000699104997457 0)
(0.00261462383408 0.00514734719285 0)
(0.00296606812036 0.00535232581414 0)
(0.00329463452862 0.00552362961668 0)
(0.00361997052397 0.00557946415248 0)
(0.00391509344601 0.00554042861255 0)
(0.00419682594064 0.00545311160649 0)
(0.0044745266993 0.00534436290729 0)
(0.00475341910197 0.00521548198317 0)
(0.00503125567093 0.00506233039085 0)
(0.00530021839952 0.00489004986932 0)
(0.00555072874914 0.0047088658646 0)
(0.00577606568053 0.00452216279207 0)
(0.00597512213058 0.00432212293458 0)
(0.00615244076123 0.00409617525568 0)
(0.00631632266877 0.00383678766975 0)
(0.00647628044182 0.00354722462229 0)
(0.00664071060534 0.00324141741558 0)
(0.00681514470406 0.00293953698575 0)
(0.00700107558865 0.00266118014394 0)
(0.00719526814931 0.00241787619741 0)
(0.00738972391811 0.00220711422899 0)
(0.0075728026836 0.00201051411304 0)
(0.00773189283329 0.00179807937134 0)
(0.00785727281022 0.00153835702898 0)
(0.00794584726231 0.00121136304505 0)
(0.00800298721535 0.000818768430259 0)
(0.00804119543213 0.00038586602017 0)
(0.00807564958537 -4.69244463974e-05 0)
(0.00811826514432 -0.000440026297899 0)
(0.00817293989438 -0.00077086282096 0)
(0.00270293085459 0.00486612086435 0)
(0.00302717656346 0.00504316976964 0)
(0.0033369877578 0.00521521292611 0)
(0.00367046643239 0.005289497328 0)
(0.00398977225194 0.0052639958411 0)
(0.00430285052021 0.00518074663429 0)
(0.0046149955956 0.00506895189973 0)
(0.00493098727133 0.00493566855005 0)
(0.00524896671706 0.00478353357525 0)
(0.00556093626837 0.00462229440105 0)
(0.00585621721009 0.00446206173315 0)
(0.00612617130596 0.00430173529726 0)
(0.0063672354455 0.00412729154768 0)
(0.00658141278142 0.00392090394265 0)
(0.00677496444794 0.00367207662761 0)
(0.00695639171041 0.00338355755194 0)
(0.00713439560367 0.00307082524857 0)
(0.00731611034655 0.00275717988965 0)
(0.00750569610406 0.00246650125428 0)
(0.0077033264348 0.00221526090472 0)
(0.00790472123581 0.00200568629818 0)
(0.00810153578253 0.00182256173595 0)
(0.00828289063056 0.00163597756377 0)
(0.00843800559696 0.00141066382217 0)
(0.00855938723123 0.00111952121319 0)
(0.00864553947143 0.000756007010512 0)
(0.00870198775448 0.000339227913268 0)
(0.00873978420184 -9.18344485764e-05 0)
(0.00877166944532 -0.000493420797363 0)
(0.00880733359945 -0.000834869958408 0)
(0.00283101673506 0.00460786437042 0)
(0.00315205222424 0.00475661415238 0)
(0.00344908625059 0.00491325205014 0)
(0.00378097211693 0.00499138598057 0)
(0.00410728460398 0.00497202422216 0)
(0.0044325407665 0.00488966057834 0)
(0.00475997274628 0.00477210621349 0)
(0.00509446120168 0.00463059891199 0)
(0.00543511202703 0.00447476130097 0)
(0.00577476826124 0.00431990289549 0)
(0.00610280587404 0.00417716386603 0)
(0.00640942835032 0.00404205643964 0)
(0.00668862570831 0.00389512527232 0)
(0.00693907810398 0.00371341950588 0)
(0.00716363290832 0.0034828299075 0)
(0.00736813178866 0.00320429989018 0)
(0.00755999101825 0.00289324222869 0)
(0.00774672818574 0.00257445855881 0)
(0.00793458228109 0.00227468898173 0)
(0.00812733191269 0.00201433305834 0)
(0.00832537236642 0.00180009795177 0)
(0.00852514087025 0.00162093106163 0)
(0.00871911744368 0.00144959345047 0)
(0.00889679137202 0.00125080340926 0)
(0.00904692791726 0.000994076985357 0)
(0.00916095821112 0.00066650692434 0)
(0.00923644641115 0.000279645667732 0)
(0.00927894373691 -0.000133466950867 0)
(0.00930082085034 -0.000530791832046 0)
(0.0093170286937 -0.000878227744641 0)
(0.00295641041262 0.00435002299776 0)
(0.00328926722181 0.00447711164224 0)
(0.00358442622317 0.00461568987149 0)
(0.00391687469056 0.00469184629111 0)
(0.00424584024481 0.00467524342873 0)
(0.00457489390192 0.00459256759723 0)
(0.00490646149292 0.0044681529825 0)
(0.00524595959118 0.00431595088459 0)
(0.00559407901939 0.00415207853069 0)
(0.00594581679598 0.00399765481696 0)
(0.00629248642207 0.00386583139976 0)
(0.006625017888 0.00375033566893 0)
(0.00693621304794 0.00362799549574 0)
(0.00722166767256 0.00347189066896 0)
(0.00747998663052 0.00326446277774 0)
(0.0077127202068 0.00300399919543 0)
(0.00792402568945 0.00270424192904 0)
(0.00811999764435 0.00238947998015 0)
(0.00830772818144 0.00208721014887 0)
(0.00849415936692 0.0018199232629 0)
(0.00868466905789 0.00159776318929 0)
(0.00888133269564 0.00141425516173 0)
(0.00908115523869 0.00124714746864 0)
(0.00927516266947 0.00106507077204 0)
(0.00944954729392 0.000838406479445 0)
(0.00958948728111 0.000550560800129 0)
(0.00968478763339 0.00020505732057 0)
(0.00973493744622 -0.000174898746664 0)
(0.00975073767749 -0.000554829096445 0)
(0.00975095799276 -0.000902307139822 0)
(0.00306572049373 0.00408309718477 0)
(0.0034170310768 0.00419318491016 0)
(0.00371932038857 0.0043159387218 0)
(0.00405838486075 0.00438942428599 0)
(0.0043930155545 0.00437571361648 0)
(0.00472609638905 0.00429409848636 0)
(0.00505929853666 0.00416433308916 0)
(0.00539821349026 0.00400181187545 0)
(0.00574491896213 0.00382811994337 0)
(0.00609702958912 0.00366954416738 0)
(0.00644914104948 0.0035415045836 0)
(0.00679491875977 0.00343739562962 0)
(0.00712808852069 0.00333257475736 0)
(0.00744272094122 0.003198325573 0)
(0.00773370770021 0.00301494476753 0)
(0.00799768888982 0.00277810285287 0)
(0.00823405825919 0.00249866340574 0)
(0.00844560628824 0.00219824466825 0)
(0.00863855427453 0.00190244703531 0)
(0.00882179879146 0.00163329530648 0)
(0.00900511937634 0.00140264462963 0)
(0.00919623616217 0.00120846459832 0)
(0.00939722956092 0.00103539443419 0)
(0.0096017615374 0.000859638560105 0)
(0.0097950334271 0.000656691366628 0)
(0.00995771877917 0.000409360155433 0)
(0.0100731779807 0.000113510008982 0)
(0.0101350620119 -0.000220334734243 0)
(0.0101514086051 -0.000570277367349 0)
(0.0101424850997 -0.000910473010291 0)
(0.00316457816215 0.00380547509148 0)
(0.00353310005725 0.0038985849264 0)
(0.00384686022453 0.00400757414328 0)
(0.0041974561302 0.0040790275279 0)
(0.00454280969454 0.00406984430097 0)
(0.00488424563231 0.00399233117656 0)
(0.00522190474306 0.00386100509802 0)
(0.0055606645595 0.00369149668735 0)
(0.00590327906949 0.00350948648962 0)
(0.00624966149337 0.00334513632823 0)
(0.00659801211238 0.00321558592925 0)
(0.0069458532585 0.00311467777191 0)
(0.00728963465042 0.00301832858612 0)
(0.00762393004209 0.00289859776796 0)
(0.00794155659744 0.00273585124265 0)
(0.00823498563181 0.00252427754124 0)
(0.00849851669596 0.00227155453356 0)
(0.00873043082386 0.00199492192583 0)
(0.00893441870166 0.00171539729131 0)
(0.00911964076295 0.00145160731808 0)
(0.0092988555741 0.00121484622776 0)
(0.00948448323726 0.00100674507095 0)
(0.00968344192433 0.000819971108134 0)
(0.00989274972618 0.000641135821336 0)
(0.0100983777842 0.000454465982466 0)
(0.0102789470176 0.000245237241758 0)
(0.0104136516995 2.89598862185e-06 0)
(0.0104913121018 -0.000275942207329 0)
(0.0105161864472 -0.000585245683276 0)
(0.0105071389709 -0.000909649507874 0)
(0.00326440726008 0.00352227316869 0)
(0.00364179621084 0.00359376635596 0)
(0.00396570717232 0.00368816211271 0)
(0.00432900518412 0.00375657831842 0)
(0.00468882430965 0.00375271233875 0)
(0.0050437520554 0.00368239523628 0)
(0.00539110746281 0.00355453439223 0)
(0.00573369396835 0.00338368488041 0)
(0.00607389814973 0.00319786119496 0)
(0.00641327045262 0.00302934428248 0)
(0.00675335335777 0.00289588769622 0)
(0.00709580108432 0.00279189589485 0)
(0.00744074994387 0.00269527595963 0)
(0.00778486205048 0.00258119387374 0)
(0.00812071828614 0.00243259844714 0)
(0.00843817090073 0.0022441079458 0)
(0.00872721992989 0.00202088634885 0)
(0.00898147149213 0.00177494721765 0)
(0.00920103890847 0.00152057629227 0)
(0.00939368121238 0.00127023858852 0)
(0.00957320644223 0.00103221306495 0)
(0.00975497901416 0.000810453136221 0)
(0.00994971000255 0.000605819243773 0)
(0.0101579732437 0.000416879358651 0)
(0.010368209246 0.000239013119288 0)
(0.0105598456636 6.25389356479e-05 0)
(0.0107108972565 -0.000127552585487 0)
(0.0108070685087 -0.000347861860309 0)
(0.0108482129516 -0.000609119930407 0)
(0.0108488020466 -0.000908675089332 0)
(0.00337470456419 0.00324301493142 0)
(0.00374791921016 0.00328498595581 0)
(0.00407564245192 0.00336013913633 0)
(0.0044483612161 0.00342113417642 0)
(0.0048232870454 0.00342054752129 0)
(0.0051955712715 0.00335868426551 0)
(0.00555848524787 0.00323897492491 0)
(0.00591110029264 0.00307363502723 0)
(0.00625391858852 0.00289084085892 0)
(0.00658903384465 0.00272273201133 0)
(0.00692067104984 0.00258609775978 0)
(0.00725439742141 0.00247549016269 0)
(0.00759436378629 0.0023716336121 0)
(0.00794028059584 0.00225461469523 0)
(0.00828598763945 0.00211228580528 0)
(0.00862042417783 0.00194187626671 0)
(0.00893074888927 0.00174739538023 0)
(0.00920666427623 0.00153570061834 0)
(0.00944450098827 0.00131311677931 0)
(0.00964937568407 0.00108389807957 0)
(0.00983410036826 0.00085116253923 0)
(0.0100146865273 0.000619547127867 0)
(0.0102038940422 0.000397246174078 0)
(0.0104054745557 0.000194729595331 0)
(0.0106117609772 1.92901586185e-05 0)
(0.0108059181077 -0.000132065427352 0)
(0.0109681292933 -0.000276365708936 0)
(0.0110832338494 -0.000440774210128 0)
(0.0111466236891 -0.00065098594498 0)
(0.0111658493327 -0.000917207240412 0)
(0.00350131779807 0.00297853092637 0)
(0.00385669712592 0.00298204507655 0)
(0.00417912211844 0.00303005444238 0)
(0.00455444886062 0.00307559490908 0)
(0.00494142150657 0.00307240820222 0)
(0.00533205533296 0.00301683393358 0)
(0.00571512605925 0.00290774504227 0)
(0.00608464226886 0.00275427360782 0)
(0.0064374604264 0.00258252479345 0)
(0.00677454305305 0.00242182086581 0)
(0.0071014995573 0.00228588749629 0)
(0.00742702249074 0.00216843533854 0)
(0.00775909564092 0.0020531967516 0)
(0.0081009714088 0.00192636669259 0)
(0.00844890095983 0.00178256002695 0)
(0.00879255709074 0.00162366798255 0)
(0.00911805314002 0.00145421334269 0)
(0.00941263888959 0.00127671963641 0)
(0.00966943972124 0.00108939187209 0)
(0.0098902740623 0.000887345875458 0)
(0.0100851033501 0.000667177965916 0)
(0.0102680817145 0.000432614218332 0)
(0.010451813896 0.000197404609323 0)
(0.0106423144519 -1.78534450083e-05 0)
(0.0108367366044 -0.000195105153148 0)
(0.0110245313544 -0.000330243258998 0)
(0.0111912232234 -0.000439710567011 0)
(0.0113232033093 -0.000556877953171 0)
(0.0114119508086 -0.000718044722361 0)
(0.0114565293913 -0.000944265094052 0)
(0.00364744649521 0.00273733356353 0)
(0.00397498387955 0.00269495377518 0)
(0.00428321729773 0.0027065024515 0)
(0.00465270864123 0.00272616297792 0)
(0.00504531844751 0.00271105462731 0)
(0.00545129954123 0.00265560560116 0)
(0.00585567109504 0.0025558958938 0)
(0.0062470833755 0.00241819291656 0)
(0.00661744536823 0.0022648510278 0)
(0.00696472090514 0.00211974491125 0)
(0.0072939581882 0.00199110324858 0)
(0.00761537232765 0.001870200615 0)
(0.00793983968908 0.00174318220744 0)
(0.00827406622113 0.00160270215114 0)
(0.00861752154869 0.00145126597441 0)
(0.00896219860091 0.00129702222617 0)
(0.00929521692892 0.00114666551674 0)
(0.00960335307185 0.000999765653608 0)
(0.0098777658737 0.000847346287093 0)
(0.0101169255568 0.000675820470409 0)
(0.0103264910007 0.000475033496035 0)
(0.0105163919723 0.000246570427353 0)
(0.0106967396102 7.26659977965e-06 0)
(0.0108744813753 -0.000215506268372 0)
(0.0110518169415 -0.00039592982417 0)
(0.0112261321967 -0.000523690029614 0)
(0.0113906434468 -0.000612181751073 0)
(0.0115353959836 -0.000695492972343 0)
(0.011649051394 -0.000814252917113 0)
(0.0117219969333 -0.00099657000631 0)
(0.00381439590875 0.00252283168848 0)
(0.00411054866493 0.00243072882742 0)
(0.00439854617491 0.00239760946089 0)
(0.00475430301817 0.00238096179135 0)
(0.00514397687438 0.00234292454079 0)
(0.00555816064184 0.0022782090356 0)
(0.00597996184202 0.00218248256475 0)
(0.00639374163669 0.00206045461939 0)
(0.00678632028016 0.0019301089769 0)
(0.00715139206214 0.00180793765548 0)
(0.00749140788204 0.00169445371258 0)
(0.00781583860134 0.0015766027142 0)
(0.00813654247073 0.00144158650661 0)
(0.00846262589341 0.00128781290412 0)
(0.00879687977225 0.00112570126166 0)
(0.00913489759547 0.000970375015753 0)
(0.00946695833066 0.000831984193747 0)
(0.00978176359995 0.000708861476101 0)
(0.0100703440715 0.000586842756616 0)
(0.0103284279089 0.000445546769745 0)
(0.0105565411503 0.000269170265173 0)
(0.0107585163916 5.65478453385e-05 0)
(0.0109398494135 -0.000175233863997 0)
(0.011106830376 -0.000396548840847 0)
(0.0112660659897 -0.000578255861814 0)
(0.0114231782622 -0.000705863117446 0)
(0.011580066301 -0.000787716145537 0)
(0.0117318430602 -0.000852863286142 0)
(0.0118659576286 -0.000939188861372 0)
(0.0119656037233 -0.0010770355511 0)
(0.00400174163336 0.0023323852152 0)
(0.00426999137983 0.00219137973661 0)
(0.00453606554049 0.00210881688076 0)
(0.00487265810228 0.00204811660795 0)
(0.00525054792414 0.00197700971463 0)
(0.00566286677948 0.00189234357156 0)
(0.00609325422293 0.00179191335962 0)
(0.00652401599254 0.00168100612685 0)
(0.00693816902766 0.00157381214453 0)
(0.00732513166388 0.00147869237394 0)
(0.00768345418212 0.00138711578687 0)
(0.0080195988431 0.00128016264703 0)
(0.00834380426273 0.00114440697816 0)
(0.0086654074022 0.000982326745908 0)
(0.00898946624984 0.000810901738789 0)
(0.00931559501825 0.000651585685396 0)
(0.00963899195448 0.000518385393095 0)
(0.00995275446639 0.000410063594078 0)
(0.0102500729664 0.00031009985464 0)
(0.0105252724299 0.000194624058393 0)
(0.0107738321816 4.46630856778e-05 0)
(0.0109925349125 -0.000143479309691 0)
(0.0111807508149 -0.000355213634968 0)
(0.0113424616394 -0.000563666453509 0)
(0.0114871129043 -0.000741554166605 0)
(0.0116272659672 -0.000873025188228 0)
(0.0117728596409 -0.000960191469157 0)
(0.0119246366577 -0.00102213260702 0)
(0.0120709230436 -0.00108751284424 0)
(0.0121909116339 -0.00118401184962 0)
(0.00420782233747 0.00215834154966 0)
(0.00445724759955 0.00197360651685 0)
(0.00470417737876 0.00184153327867 0)
(0.00501989779275 0.00173373055166 0)
(0.0053790467457 0.00162276846614 0)
(0.00577888710091 0.00150868792185 0)
(0.00620588583506 0.00139354844495 0)
(0.00664306396377 0.00128561769898 0)
(0.00707206736862 0.00119678646292 0)
(0.0074794742279 0.00112783527661 0)
(0.00785996412059 0.0010612186832 0)
(0.00821556414622 0.000971676354857 0)
(0.00855237971716 0.00084387648339 0)
(0.00887713605774 0.000682222196574 0)
(0.009194915415 0.000507656022846 0)
(0.00950844615387 0.000345706084506 0)
(0.00981849574003 0.000213264159039 0)
(0.0101243824079 0.000110574553855 0)
(0.0104237045422 2.19003377321e-05 0)
(0.0107113339675 -7.58386263944e-05 0)
(0.0109789495445 -0.000201154493261 0)
(0.0112167186825 -0.000359107562586 0)
(0.0114174701508 -0.000539704423178 0)
(0.0115815036483 -0.000723394534839 0)
(0.0117187670279 -0.000889735781137 0)
(0.0118459222348 -0.00102466221425 0)
(0.0119786953847 -0.00112404979499 0)
(0.0121231379957 -0.00119404627648 0)
(0.0122708262573 -0.00124961406121 0)
(0.0124014206964 -0.00131169478155 0)
(0.00443061727775 0.00199036455568 0)
(0.00467338076829 0.00177005881684 0)
(0.00490732367802 0.00159296151628 0)
(0.00520446601943 0.00144034398503 0)
(0.00554156467365 0.00128769316309 0)
(0.00592050192569 0.0011382674558 0)
(0.00633199675674 0.00099961707039 0)
(0.00676227294367 0.000884964107234 0)
(0.0071944943223 0.000805716653684 0)
(0.00761491179698 0.000756626070606 0)
(0.00801578918778 0.000712577366283 0)
(0.00839469931468 0.000642969796611 0)
(0.00875209176939 0.000530388863578 0)
(0.00908949965757 0.00037933808853 0)
(0.00940921463133 0.00021150514381 0)
(0.00971490732387 5.29085689541e-05 0)
(0.0100119500008 -7.91490129741e-05 0)
(0.0103062150915 -0.000183021392705 0)
(0.010601080714 -0.000271009486178 0)
(0.0108940050241 -0.000361024684348 0)
(0.0111751896773 -0.000466986731092 0)
(0.0114302861093 -0.000593327081456 0)
(0.0116467210516 -0.000735547449233 0)
(0.0118205206807 -0.000884507832459 0)
(0.0119595309014 -0.00103032193027 0)
(0.0120806067017 -0.00116361384599 0)
(0.0122017391494 -0.00127542556985 0)
(0.0123330788462 -0.00135885243882 0)
(0.0124715772178 -0.00141371357739 0)
(0.0126021090162 -0.0014516310275 0)
(0.00466802827591 0.00181798673644 0)
(0.00491680625644 0.00157145593575 0)
(0.00514560213574 0.00135701029827 0)
(0.00542978672048 0.00116635713671 0)
(0.00574595423572 0.000975363572251 0)
(0.00609990357833 0.000789598214906 0)
(0.00648674093565 0.000622156848265 0)
(0.0068973790946 0.000492151277381 0)
(0.00731900506517 0.000411933967395 0)
(0.0077403864411 0.000372181428395 0)
(0.0081538149609 0.000342697713865 0)
(0.00855384543113 0.000289957810092 0)
(0.00893532845339 0.000195716682698 0)
(0.00929326939782 6.3771000133e-05 0)
(0.00962482032756 -8.63768036018e-05 0)
(0.0099318557533 -0.000232283717718 0)
(0.0102218788842 -0.000359735013579 0)
(0.0105056785249 -0.000467022710347 0)
(0.0107920901411 -0.000561621799141 0)
(0.0110824601729 -0.000652967273051 0)
(0.0113683251507 -0.000746835800216 0)
(0.011634342167 -0.000844710850217 0)
(0.0118653517894 -0.000946993356417 0)
(0.0120537766552 -0.00105566953407 0)
(0.0122032781834 -0.00117285396124 0)
(0.0123268471568 -0.00129587265282 0)
(0.012440640777 -0.00141361142312 0)
(0.0125568703353 -0.0015090916204 0)
(0.0126789669767 -0.00156897171945 0)
(0.0128006735833 -0.00159482289322 0)
(0.00491692334984 0.00163247692712 0)
(0.00518299590176 0.00136864849924 0)
(0.00541458742542 0.00112579031645 0)
(0.0056935211505 0.0009064787302 0)
(0.00599400747382 0.000684568433823 0)
(0.0063241946042 0.000466513152745 0)
(0.00668246669257 0.00026993067015 0)
(0.0070645558318 0.000119414097091 0)
(0.00746309991428 2.87146153312e-05 0)
(0.00787169904482 -1.38948271122e-05 0)
(0.00828530760503 -4.0825254753e-05 0)
(0.00869786155732 -8.52154990143e-05 0)
(0.00910026449954 -0.000163655016503 0)
(0.00948148493901 -0.00027254259338 0)
(0.0098326411261 -0.000396382253368 0)
(0.0101515720123 -0.000519722032512 0)
(0.0104447139885 -0.000634938434533 0)
(0.0107244353 -0.000742420856171 0)
(0.0110027236302 -0.000845075683263 0)
(0.0112846405671 -0.000942677668354 0)
(0.011565387811 -0.00103110650774 0)
(0.0118326563822 -0.00110708258057 0)
(0.0120726580628 -0.00117399539874 0)
(0.0122762543711 -0.00124294759058 0)
(0.0124421618701 -0.00132664764064 0)
(0.0125764947509 -0.00142964394328 0)
(0.0126899205828 -0.00154202341969 0)
(0.0127941253389 -0.00164219229353 0)
(0.0128984393384 -0.00170857031318 0)
(0.0130067517723 -0.00173380569364 0)
(0.00517158457577 0.00142767484829 0)
(0.00546374434834 0.00115393882232 0)
(0.00570519661675 0.000891045952893 0)
(0.0059873910104 0.000652833461589 0)
(0.00628052508899 0.000409574876668 0)
(0.00659320732239 0.000167211088586 0)
(0.00692519606687 -5.3817872344e-05 0)
(0.00727593190226 -0.00022508534265 0)
(0.00764354468376 -0.0003321982519 0)
(0.00802758056109 -0.000388421610055 0)
(0.00842760628775 -0.000425864883565 0)
(0.00883945345069 -0.000473888556806 0)
(0.00925276736403 -0.000544380167892 0)
(0.00965273891247 -0.000632340485666 0)
(0.010025524962 -0.000726583669853 0)
(0.0103641608173 -0.000820420477276 0)
(0.0106712676923 -0.000915119019216 0)
(0.0109567848269 -0.00101523987552 0)
(0.0112320937109 -0.00112079479528 0)
(0.0115041098119 -0.00122329426809 0)
(0.0117725942974 -0.00130960535413 0)
(0.0120314407032 -0.00137124039629 0)
(0.0122721264286 -0.00141204508017 0)
(0.0124868744896 -0.00144797996778 0)
(0.0126704494405 -0.00149827813469 0)
(0.0128212019226 -0.00157343880473 0)
(0.0129422187764 -0.00166781599599 0)
(0.0130421121384 -0.00176165804642 0)
(0.0131336865657 -0.00183165999732 0)
(0.0132292212833 -0.00186418336017 0)
(0.0054230806116 0.00120006381787 0)
(0.00574701512977 0.000921544848445 0)
(0.00600411432901 0.000645119276626 0)
(0.00629785099757 0.000396239428042 0)
(0.0065936560429 0.000141231487869 0)
(0.00689888279536 -0.000115399073728 0)
(0.0072125844253 -0.000352237548076 0)
(0.00753604141127 -0.000539468181063 0)
(0.00787168327852 -0.000663842365208 0)
(0.00822465573205 -0.000740268395139 0)
(0.0085997666594 -0.000798914302874 0)
(0.00899649031908 -0.000862720074828 0)
(0.00940602726892 -0.00093620149226 0)
(0.00981314447694 -0.00101099110678 0)
(0.010201891092 -0.00107915734601 0)
(0.010561659087 -0.00114241811533 0)
(0.010890025263 -0.00121110180736 0)
(0.0111912199889 -0.00129491310621 0)
(0.0114720314905 -0.00139326775137 0)
(0.0117381916869 -0.00149297061645 0)
(0.011993006169 -0.00157540789247 0)
(0.0122376168574 -0.00162830045142 0)
(0.0124711370356 -0.0016537937705 0)
(0.0126899462249 -0.00166751205556 0)
(0.0128873916313 -0.00168958628943 0)
(0.0130557814816 -0.00173362298934 0)
(0.013190891416 -0.00179997201857 0)
(0.0132964980093 -0.00187619157857 0)
(0.013385154735 -0.00194344534038 0)
(0.0134730771528 -0.00198528110672 0)
(0.00566078611287 0.000948664373944 0)
(0.00601846433546 0.000667637119288 0)
(0.00629545118882 0.000381516739402 0)
(0.0066078898202 0.00012740441015 0)
(0.00691656735209 -0.000131479624489 0)
(0.00722632458749 -0.000392310333507 0)
(0.00753378252544 -0.000634255841637 0)
(0.00784005075529 -0.000828778300881 0)
(0.00814993415664 -0.000966093425389 0)
(0.00847258998983 -0.0010635974926 0)
(0.00881720473507 -0.00114890524511 0)
(0.00918729007589 -0.00123721306102 0)
(0.00957761982 -0.00132424904937 0)
(0.00997593872814 -0.00139684769034 0)
(0.0103679785492 -0.00144856704934 0)
(0.0107422948244 -0.0014872506386 0)
(0.0110922158435 -0.00153005225772 0)
(0.0114149160706 -0.0015909986167 0)
(0.011709831927 -0.00167079134181 0)
(0.0119783984705 -0.00175604609473 0)
(0.0122248421729 -0.00182788263462 0)
(0.0124559376139 -0.00187332209041 0)
(0.0126782274097 -0.00189194739641 0)
(0.0128937904143 -0.00189468719064 0)
(0.0130977576315 -0.00189715965964 0)
(0.01328025068 -0.00191243801799 0)
(0.0134323806573 -0.00194653477135 0)
(0.013552704327 -0.00199695016038 0)
(0.0136496348732 -0.0020532880883 0)
(0.0137375393811 -0.00209974084581 0)
(0.00587601713222 0.000675165543776 0)
(0.00626495156159 0.00039054088648 0)
(0.00656391712318 9.54907226689e-05 0)
(0.00690003541043 -0.000161863206718 0)
(0.00723027103081 -0.000419646129519 0)
(0.00755623445876 -0.000676329179344 0)
(0.00787103889994 -0.000912716209125 0)
(0.00817398949888 -0.00110395230147 0)
(0.00847022798491 -0.00124597998308 0)
(0.00877065061044 -0.00135977026735 0)
(0.00908678708006 -0.00147056381481 0)
(0.00942514037078 -0.00158593856221 0)
(0.00978468160176 -0.00169317607896 0)
(0.0101585327218 -0.00177419285266 0)
(0.0105376117791 -0.00182243507088 0)
(0.0109131334106 -0.00184847164908 0)
(0.01127670609 -0.00187217549809 0)
(0.0116195461606 -0.00190923945669 0)
(0.0119333187188 -0.00196226372794 0)
(0.0122132593222 -0.00202158781348 0)
(0.0124613331112 -0.00207330315198 0)
(0.0126862178856 -0.0021076068997 0)
(0.0128990206654 -0.00212238259911 0)
(0.0131070681531 -0.00212189734268 0)
(0.0133098599523 -0.00211387989412 0)
(0.0134998822566 -0.00210754047225 0)
(0.0136676439455 -0.00211210021646 0)
(0.0138075991738 -0.00213383358031 0)
(0.0139213275359 -0.00217134687331 0)
(0.0140162631479 -0.00221212546674 0)
(0.00606633155153 0.000384223143611 0)
(0.00647913245975 9.13667397971e-05 0)
(0.0067990263547 -0.000215024933445 0)
(0.00716028320382 -0.000477217098971 0)
(0.00751734804026 -0.000732422392338 0)
(0.00786842060118 -0.000979582827234 0)
(0.00820277193742 -0.00120169317911 0)
(0.00851695751865 -0.00137945166952 0)
(0.00881482020066 -0.00151625362979 0)
(0.00910668797269 -0.00163743036636 0)
(0.00940385816323 -0.00176634393538 0)
(0.00971372734242 -0.00190422182762 0)
(0.0100385990669 -0.00203195146589 0)
(0.0103776741666 -0.00212802726349 0)
(0.0107291060305 -0.00218507577336 0)
(0.0110896635361 -0.00221298409023 0)
(0.0114525013339 -0.00222955652855 0)
(0.0118060177528 -0.00224837354126 0)
(0.0121363294387 -0.00227299796949 0)
(0.012432743779 -0.00229949486923 0)
(0.0126926572302 -0.00232244006947 0)
(0.0129223293615 -0.00233854817714 0)
(0.013132944912 -0.00234628025574 0)
(0.0133346251589 -0.00234431594472 0)
(0.0135319852773 -0.00233225321399 0)
(0.0137231726009 -0.0023134637847 0)
(0.0139018948683 -0.00229656033356 0)
(0.0140606792692 -0.00229207249197 0)
(0.014193858316 -0.00230482909012 0)
(0.0142995409577 -0.00232695419897 0)
(0.00623830744989 8.34304695188e-05 0)
(0.00666323339017 -0.000225253956843 0)
(0.00699901917057 -0.000548256359109 0)
(0.00738213218453 -0.000820165625115 0)
(0.00776609905437 -0.00107493456084 0)
(0.00814607606719 -0.00131090913217 0)
(0.00850788105689 -0.00151346347406 0)
(0.00884517898292 -0.00167011273078 0)
(0.00915958907728 -0.00179262643994 0)
(0.00945905804591 -0.00191078239825 0)
(0.00975222767091 -0.00204638584483 0)
(0.0100449129697 -0.0021961543604 0)
(0.010340780986 -0.00233778995517 0)
(0.0106439875375 -0.00244918926978 0)
(0.0109598253957 -0.0025226409181 0)
(0.0112917940683 -0.00256494519509 0)
(0.011637296443 -0.00258781474123 0)
(0.0119859219439 -0.00259906863051 0)
(0.0123224350531 -0.00260119928441 0)
(0.0126328657496 -0.00259556865373 0)
(0.0129098293796 -0.00258587069988 0)
(0.0131541550853 -0.00257687848296 0)
(0.0133727799113 -0.00257029479035 0)
(0.0135749500388 -0.00256267331478 0)
(0.0137686905889 -0.00254822367032 0)
(0.013958219786 -0.00252443839769 0)
(0.0141422871347 -0.00249556280913 0)
(0.0143138810384 -0.00247039117389 0)
(0.0144622810961 -0.00245526068255 0)
(0.0145776757087 -0.00244692515829 0)
(0.0064070767252 -0.000217545295745 0)
(0.00682998991388 -0.000551054391477 0)
(0.0071727586733 -0.000897864290637 0)
(0.00756938077321 -0.00118682747512 0)
(0.00797417650718 -0.00144652512818 0)
(0.00838017490906 -0.00167355422897 0)
(0.00877079299674 -0.00185564300969 0)
(0.00913745426852 -0.00198782128911 0)
(0.0094794442279 -0.0020902755475 0)
(0.00980131971701 -0.00219645147456 0)
(0.0101073487051 -0.00232642328335 0)
(0.0103996261666 -0.00247421243456 0)
(0.0106807949744 -0.00261785659609 0)
(0.0109574575576 -0.00273803863307 0)
(0.0112398322564 -0.00282814843327 0)
(0.0115371025666 -0.00289106065518 0)
(0.0118519824323 -0.0029303280637 0)
(0.0121786440805 -0.00294582175378 0)
(0.0125052371795 -0.00293685058737 0)
(0.0128188105871 -0.00290770455244 0)
(0.013109486741 -0.00286887047113 0)
(0.0133723895821 -0.00283220913703 0)
(0.0136078277663 -0.0028043352096 0)
(0.0138206145241 -0.00278374872415 0)
(0.0140184331544 -0.00276358706581 0)
(0.0142086512695 -0.00273724930878 0)
(0.014394063397 -0.00270251154997 0)
(0.0145698136194 -0.00266163385789 0)
(0.0147242212618 -0.00261804997583 0)
(0.0148443249846 -0.00257214725736 0)
(0.00659241165525 -0.000508721478212 0)
(0.00699978565751 -0.000875230177947 0)
(0.00733830488397 -0.00125344098492 0)
(0.00773626285876 -0.00156786249964 0)
(0.00815032664474 -0.00184006732714 0)
(0.00857274120301 -0.00206381531107 0)
(0.00898610676438 -0.00222909061521 0)
(0.00938092644828 -0.00233864238522 0)
(0.0097548016575 -0.00242028691857 0)
(0.0101087905908 -0.00250954774877 0)
(0.0104420953346 -0.00262402142882 0)
(0.0107518520836 -0.00275638487127 0)
(0.0110376268364 -0.00288800059517 0)
(0.0113054095933 -0.00300532104523 0)
(0.0115667320745 -0.00310460970549 0)
(0.011833495969 -0.00318551749298 0)
(0.0121127302225 -0.00324384297281 0)