/*--------------------------------*- C++ -*----------------------------------*\
  =========                 |
  \\      /  F ield         | OpenFOAM: The Open Source CFD Toolbox
   \\    /   O peration     | Website:  https://openfoam.org
    \\  /    A nd           | Version:  6
     \\/     M anipulation  |
\*---------------------------------------------------------------------------*/
FoamFile
{
    version     2.0;
    format      ascii;
    class       surfaceVectorField;
    location    "0.0339621151";
    object      qSurf;
}
// * * * * * * * * * * * * * * * * * * * * * * * * * * * * * * * * * * * * * //

dimensions      [1 0 -3 0 0 0 0];

internalField   nonuniform List<vector> 
7080
(
(0.00318500833131 0.0058544902156 0)
(0.00302840992891 0.00584179417355 0)
(0.00362843652325 0.00604909224443 0)
(0.00343074204435 0.00598329837371 0)
(0.00389167096566 0.00607582351653 0)
(0.00371576713396 0.00605293759849 0)
(0.00407833327169 0.00602927547278 0)
(0.00394063687722 0.00602685870326 0)
(0.0042456356283 0.00594874550543 0)
(0.00412677052009 0.00595021519636 0)
(0.00441209826039 0.00585325462686 0)
(0.00430693128684 0.00585392331414 0)
(0.00457991946783 0.00574237913993 0)
(0.00449041639556 0.00574834074474 0)
(0.00474534785258 0.00559969285122 0)
(0.00467741662741 0.00562249195521 0)
(0.00490287647267 0.00541543079747 0)
(0.00486227843334 0.00546341771444 0)
(0.00504681134818 0.00519765501392 0)
(0.00503693149941 0.00527172904208 0)
(0.00517353752761 0.00496416547579 0)
(0.00519394206084 0.00505944972253 0)
(0.00528385116559 0.00472761847432 0)
(0.00532988370128 0.0048373328174 0)
(0.00538354368201 0.00448921682646 0)
(0.00544710767302 0.00460674172423 0)
(0.00548175617628 0.00424363151408 0)
(0.00555305205503 0.00436217649145 0)
(0.00558806853648 0.00398729204629 0)
(0.005657751762 0.00409907009137 0)
(0.00570958672035 0.00372287355995 0)
(0.00577082237381 0.00381950098054 0)
(0.00584890846257 0.00345850906467 0)
(0.00589892224811 0.00353306414045 0)
(0.00600330393343 0.00320338799901 0)
(0.00604418473971 0.00325364415723 0)
(0.00616495366509 0.00296184068808 0)
(0.00620360976462 0.00299351659283 0)
(0.00632197660891 0.00272847225266 0)
(0.00636916893257 0.00275663656697 0)
(0.00646037683533 0.00248734955643 0)
(0.00652866702872 0.00253405351226 0)
(0.00656732222695 0.00221692100185 0)
(0.00666788462001 0.00230450901874 0)
(0.00663555224255 0.00189925466178 0)
(0.00677437442294 0.00204129752325 0)
(0.0066673505632 0.00152935819624 0)
(0.00684216251004 0.00172326486833 0)
(0.00667564783375 0.0011197227853 0)
(0.00687528362265 0.00134523589561 0)
(0.00668059301559 0.000697200237704 0)
(0.00688781518699 0.000922656019394 0)
(0.0067022266007 0.000292931986415 0)
(0.00689943721305 0.000487335607511 0)
(0.00675229350108 -7.03250226481e-05 0)
(0.00692788320236 7.53066743192e-05 0)
(0.00682913088847 -0.000387342944587 0)
(0.00698156871771 -0.000287917732005 0)
(0.00705598986018 -0.000597478024875 0)
(0.00691829032807 -0.000671304662293 0)
(0.00303405388168 0.00555012460198 0)
(0.0028510437066 0.00538449866131 0)
(0.0034516497248 0.00582594809664 0)
(0.00322463074983 0.00559674973518 0)
(0.00377358611756 0.00591022272457 0)
(0.003563592938 0.005755603044 0)
(0.00402952760009 0.00588063985381 0)
(0.00387470887397 0.00579016724702 0)
(0.00425824872248 0.00579493856247 0)
(0.00414446664863 0.00573757472274 0)
(0.00448138807287 0.0056911279719 0)
(0.00439812565192 0.0056449928238 0)
(0.00470658695234 0.0055764470231 0)
(0.00464818506542 0.0055360660868 0)
(0.00493277972621 0.0054373437411 0)
(0.00489992466253 0.0054081745457 0)
(0.00515348798705 0.00526554221328 0)
(0.0051505044033 0.00525364213308 0)
(0.00535978071921 0.00506832798295 0)
(0.00539190117818 0.00507547978583 0)
(0.00554433750206 0.00485877569856 0)
(0.00561488172639 0.00488407726131 0)
(0.00570501530968 0.00464205755737 0)
(0.0058134813872 0.00468500398256 0)
(0.00584590647849 0.0044125605915 0)
(0.00598757804659 0.00447337858395 0)
(0.0059757320047 0.00416164030651 0)
(0.00614271779721 0.0042390392248 0)
(0.00610489137821 0.00388670483162 0)
(0.00628797226825 0.00397568859836 0)
(0.00624254662275 0.00359499532134 0)
(0.00643315030932 0.00368660620818 0)
(0.00639449120499 0.00330156599312 0)
(0.00658633447921 0.003384771513 0)
(0.00656193607056 0.00302357172627 0)
(0.0067521664612 0.00308872557502 0)
(0.00674097460362 0.00277293278651 0)
(0.00693084697851 0.00281595633018 0)
(0.00692259552196 0.00254971064569 0)
(0.00711765875827 0.00257558787422 0)
(0.00709366501472 0.00233914813147 0)
(0.0073031314406 0.00236280517296 0)
(0.00723961712207 0.00211472135117 0)
(0.00747442402368 0.00215776836023 0)
(0.00734892982804 0.001847237268 0)
(0.00761840933846 0.00193072630932 0)
(0.00741800222498 0.00151699847521 0)
(0.00772601891709 0.00165261855129 0)
(0.00745394460337 0.00112386023709 0)
(0.00779621309606 0.00130754574339 0)
(0.00747316479835 0.000689952623558 0)
(0.00783745521055 0.000901563505874 0)
(0.00749554945087 0.000252580506198 0)
(0.00786534893995 0.000462833725966 0)
(0.0075364497354 -0.000150414532259 0)
(0.00789687328674 3.17500538785e-05 0)
(0.00760016361675 -0.00049617219023 0)
(0.00794351562443 -0.000355196610549 0)
(0.00800651110647 -0.000680279603018 0)
(0.00767821404913 -0.000785478638058 0)
(0.00300128802193 0.00523191544117 0)
(0.00289223311739 0.00506940102592 0)
(0.00336777342636 0.00550892936817 0)
(0.00321905345115 0.00526007953847 0)
(0.00371259429906 0.00564118978766 0)
(0.00354048047686 0.00543927001111 0)
(0.00402068145088 0.00564518438665 0)
(0.00387432826536 0.00550741301038 0)
(0.00430536262154 0.00557113628015 0)
(0.00418559425899 0.00547535684865 0)
(0.00458127603711 0.00546690352196 0)
(0.00448576575204 0.00538923787413 0)
(0.00485723778066 0.00534830255798 0)
(0.00478259771303 0.00527835775121 0)
(0.00513474589486 0.00520845718458 0)
(0.00508165494309 0.00514722437383 0)
(0.00540836178286 0.00504404098783 0)
(0.00538116463504 0.00499497876594 0)
(0.00566838932505 0.00486381357404 0)
(0.00567319614152 0.00482883327024 0)
(0.00590563681394 0.00467775289082 0)
(0.00594742677681 0.00465867337844 0)
(0.00611569406698 0.00448497009737 0)
(0.00619596693306 0.00448532004091 0)
(0.0063004933165 0.00427387358445 0)
(0.00641636610404 0.00429757125662 0)
(0.00646711248071 0.00403213174215 0)
(0.00661192619105 0.00408009591348 0)
(0.00662520514591 0.0037563287684 0)
(0.00679009696193 0.00382395678008 0)
(0.0067843553169 0.00345528528585 0)
(0.00696015058369 0.00353243444515 0)
(0.00695197688677 0.00314733521019 0)
(0.0071309354924 0.00322064381618 0)
(0.00713184533987 0.00285406240901 0)
(0.00730905281768 0.00291077834906 0)
(0.00732312320914 0.0025925458197 0)
(0.00749750535296 0.00262499078981 0)
(0.00751988290632 0.0023680527424 0)
(0.00769479835908 0.00237756658421 0)
(0.00771154483736 0.0021696905105 0)
(0.00789466293052 0.00216842495311 0)
(0.00788485059904 0.00197151925706 0)
(0.00808682198428 0.00198049787063 0)
(0.00802749482996 0.00174020161792 0)
(0.0082591465421 0.00178317164668 0)
(0.00813247060354 0.00144753853283 0)
(0.00840100368188 0.00154213243271 0)
(0.00820128466678 0.00108325022476 0)
(0.00850684294153 0.00123291043427 0)
(0.00824421750124 0.000661882338118 0)
(0.00857857793257 0.000852606606631 0)
(0.00827692274208 0.000219357237421 0)
(0.00862546249193 0.000423755373228 0)
(0.00831440972902 -0.000200576793555 0)
(0.00866103284206 -1.28201848574e-05 0)
(0.00836496571501 -0.00056423932935 0)
(0.00869804230535 -0.000413965914692 0)
(0.00874352563446 -0.000751881299666 0)
(0.00842695642036 -0.000861621333803 0)
(0.00309256961675 0.00495588811332 0)
(0.00301857314965 0.00480753990486 0)
(0.00341623641772 0.00519409798594 0)
(0.00333019259017 0.00496468471722 0)
(0.00375330638298 0.00534070096702 0)
(0.00363041297936 0.00513193676217 0)
(0.00407953467478 0.0053649379238 0)
(0.00396276215346 0.00521010460882 0)
(0.00439390594055 0.00530060317669 0)
(0.0042868322366 0.00518825228242 0)
(0.00470339549475 0.00519621840705 0)
(0.00460760578408 0.0051050889594 0)
(0.00501514745893 0.00507260600221 0)
(0.00492903485167 0.00498995984742 0)
(0.00533125852772 0.00492967589793 0)
(0.00525600591143 0.00485244621459 0)
(0.00564665239894 0.00477053962797 0)
(0.00558715200443 0.00469883276678 0)
(0.00595096153808 0.00460672963202 0)
(0.0059147327863 0.00454161655564 0)
(0.00623336145469 0.00444571046548 0)
(0.00622781390898 0.00439119551859 0)
(0.00648713500336 0.0042804988754 0)
(0.0065168978552 0.00424438071493 0)
(0.00671161067667 0.00409308966785 0)
(0.0067770268655 0.00408400398795 0)
(0.00691148803632 0.00386675264005 0)
(0.00700854001026 0.00388937603373 0)
(0.00709484594913 0.00359635840617 0)
(0.00721616645592 0.00364812278208 0)
(0.00727092522966 0.00329138888731 0)
(0.00740739246542 0.0033622659445 0)
(0.00744815924335 0.00297268393894 0)
(0.00759065810475 0.00304762980656 0)
(0.00763255722866 0.00266573839026 0)
(0.0077736474731 0.00272876330773 0)
(0.00782643533252 0.00239254899099 0)
(0.00796181405009 0.00243149743006 0)
(0.00802757474847 0.00216365287384 0)
(0.00815723526238 0.00217471209763 0)
(0.00822910104063 0.00197255819317 0)
(0.0083579123888 0.00196312326268 0)
(0.00842049466282 0.00179518033583 0)
(0.00855770508515 0.00178350629903 0)
(0.00858992262663 0.00159608628394 0)
(0.0087471355018 0.00160675088852 0)
(0.0087275384065 0.00134087564713 0)
(0.00891522955817 0.0013966479763 0)
(0.00882878809312 0.00101061498818 0)
(0.00905229866202 0.00112335753839 0)
(0.00889640757128 0.000611864263813 0)
(0.00915306981181 0.000776444865601 0)
(0.00893997154543 0.000176584097647 0)
(0.0092190195068 0.00037128129335 0)
(0.00897270073616 -0.000249460024397 0)
(0.00925860234386 -5.5214116071e-05 0)
(0.00900655363552 -0.00062526748457 0)
(0.0092847132284 -0.000458687547458 0)
(0.00931007987871 -0.000805414642131 0)
(0.00904774421121 -0.000931503107255 0)
(0.00323012170608 0.00470482841241 0)
(0.00315563231837 0.00455533638925 0)
(0.00353543016235 0.00489734635048 0)
(0.00347460383959 0.00468696312381 0)
(0.00386274294395 0.00503903747525 0)
(0.00376653395644 0.00483471263415 0)
(0.00419150163736 0.00507127845453 0)
(0.00409566668393 0.00491213107263 0)
(0.00451603967155 0.00501208596333 0)
(0.00442150545557 0.00489405608354 0)
(0.00483941492644 0.00490536249164 0)
(0.00474758179885 0.00481085508143 0)
(0.00516785400266 0.00477365025781 0)
(0.00507658564785 0.00468900758436 0)
(0.00550430208908 0.0046231418095 0)
(0.00541374302757 0.00454150829839 0)
(0.00584480231559 0.00446427896681 0)
(0.0057589695887 0.00438157946005 0)
(0.00617951959128 0.00431257718228 0)
(0.00610600282994 0.00422763685783 0)
(0.00649708043643 0.00417415346276 0)
(0.00644480621523 0.0040917249264 0)
(0.00678888992851 0.0040368940741 0)
(0.00676547667173 0.00396803727149 0)
(0.00705123893072 0.00387685960099 0)
(0.00706099618073 0.00383466843381 0)
(0.00728527339539 0.00367264951188 0)
(0.00732826695621 0.00366615034787 0)
(0.00749588337702 0.00341639103425 0)
(0.00756802147114 0.00344634923247 0)
(0.00769025672333 0.00311669671782 0)
(0.00778419441885 0.00317489444414 0)
(0.00787636459263 0.00279521942426 0)
(0.00798296877276 0.00286668313532 0)
(0.00806148861243 0.00247977475938 0)
(0.00817159419662 0.00254680513366 0)
(0.00825088609324 0.0021959839465 0)
(0.00835712255034 0.00224302319236 0)
(0.00844667312013 0.00195892908948 0)
(0.00854517791442 0.00197738335231 0)
(0.00864702296427 0.0017668319653 0)
(0.00873877064753 0.00175871276645 0)
(0.00884587567599 0.00159931890721 0)
(0.0089371488836 0.0015782915436 0)
(0.00903349816017 0.00142230944545 0)
(0.00913491603645 0.00141095275228 0)
(0.00919826891259 0.00119936357688 0)
(0.00932204815249 0.00122251989449 0)
(0.00932975162837 0.000906027566222 0)
(0.00948561053408 0.000981904443115 0)
(0.00942238045097 0.000541177037828 0)
(0.00961344258519 0.000673540448864 0)
(0.00947825572504 0.000129546746694 0)
(0.00969886924877 0.000304779267636 0)
(0.00950735891798 -0.000286878568643 0)
(0.00974433149784 -9.56331133028e-05 0)
(0.00952443909203 -0.000665614397458 0)
(0.00976170753561 -0.000488205540536 0)
(0.0097684519039 -0.000838383678512 0)
(0.00954356737605 -0.000981135326053 0)
(0.00336883292587 0.00445635804097 0)
(0.00327541373786 0.00429612124185 0)
(0.00367359260304 0.0046088089085 0)
(0.00361217176952 0.00440972221092 0)
(0.00399871048093 0.00473984624212 0)
(0.00390764778975 0.00453985325654 0)
(0.00432838606555 0.00477431295357 0)
(0.00423983675341 0.00461419747139 0)
(0.00465608994304 0.00471802248828 0)
(0.00456834515236 0.00459850931834 0)
(0.00498325746134 0.00460823849707 0)
(0.00489638063245 0.0045153371062 0)
(0.00531588225534 0.00446684593065 0)
(0.005226126486 0.00438685879163 0)
(0.00565808049543 0.00430530602418 0)
(0.00556334721984 0.00422808592283 0)
(0.00600789786354 0.00414137595873 0)
(0.00590966153266 0.00405835702222 0)
(0.00635770395102 0.00399521924093 0)
(0.00626145308146 0.00390182020389 0)
(0.00669762058293 0.00387295129448 0)
(0.00661151198664 0.00377290192655 0)
(0.00701888839987 0.00375909884993 0)
(0.00695173692402 0.00366487610472 0)
(0.00731556268968 0.00362534030801 0)
(0.00727485965935 0.00355322375115 0)
(0.00758489603444 0.00344631011643 0)
(0.00757520573993 0.00340942137314 0)
(0.00782724774154 0.00321101247766 0)
(0.0078491898385 0.00321427576067 0)
(0.00804581552631 0.00292588783149 0)
(0.00809583287112 0.00296451750038 0)
(0.0082460998939 0.00261151627163 0)
(0.00831709326313 0.00267258382365 0)
(0.00843506159607 0.00229589548902 0)
(0.00851778002469 0.00236190048611 0)
(0.00862004090895 0.00200618981711 0)
(0.00870499635254 0.00205969118544 0)
(0.0088074501363 0.00176043492334 0)
(0.00888709684514 0.00178891157039 0)
(0.0090011635653 0.00156111665781 0)
(0.00907202279595 0.00156109357574 0)
(0.00920068896875 0.00139293763684 0)
(0.00926491418658 0.00137218743105 0)
(0.00939971229673 0.00122652574985 0)
(0.00946537530512 0.00120316293803 0)
(0.00958614097757 0.00102793147162 0)
(0.00966556223223 0.00102580866544 0)
(0.00974469313824 0.000771098416645 0)
(0.00985070865786 0.000812200178441 0)
(0.00986198587605 0.00044851022075 0)
(0.0100030888807 0.000544645982117 0)
(0.00993236633208 7.52464172002e-05 0)
(0.0101086679636 0.0002224350797 0)
(0.00996156233297 -0.000315972790174 0)
(0.0101637197454 -0.000137366398901 0)
(0.009965696018 -0.000687346868216 0)
(0.0101778930929 -0.000505801593368 0)
(0.0101714378754 -0.000852723930137 0)
(0.00996537570836 -0.00101102660657 0)
(0.00349232672911 0.00419888295614 0)
(0.00337727813587 0.00402502165522 0)
(0.00380672529445 0.00431808489056 0)
(0.00373375900702 0.00412311612502 0)
(0.00413803286898 0.00443895062138 0)
(0.00404001824657 0.00423900335941 0)
(0.00447334402001 0.00447472222665 0)
(0.00438194383002 0.00431118371161 0)
(0.00480573081899 0.0044219775636 0)
(0.00471858328863 0.00429934787228 0)
(0.00513551703512 0.00431080842619 0)
(0.00505218068998 0.00421877485376 0)
(0.00546828029986 0.004160868649 0)
(0.0053839118705 0.00408658441072 0)
(0.00580892182304 0.00398767321424 0)
(0.00571934216751 0.00391857591783 0)
(0.00615753197462 0.00381546279856 0)
(0.00606122122265 0.00373892008732 0)
(0.0065095805075 0.00366878626529 0)
(0.00640859748765 0.00357642703622 0)
(0.00685845203304 0.00355458997776 0)
(0.00675801509026 0.00344774032054 0)
(0.00719743403381 0.00345601210619 0)
(0.00710498412353 0.00334643940628 0)
(0.00752032085257 0.00334275360978 0)
(0.00744425131058 0.00324772600432 0)
(0.00782158159377 0.00318736662757 0)
(0.00776961517192 0.00312259255167 0)
(0.00809696922804 0.00297644260649 0)
(0.00807437510631 0.0029506705679 0)
(0.00834452223153 0.00271361899788 0)
(0.00835266371899 0.0027263937567 0)
(0.0085654405443 0.00241662649933 0)
(0.00860114977436 0.00245889568492 0)
(0.00876444402329 0.00211111376635 0)
(0.00882046945374 0.00216785755945 0)
(0.0089494227003 0.00182301826858 0)
(0.00901591792911 0.0018771346695 0)
(0.00913017817357 0.00157098966918 0)
(0.009197018758 0.00160771737186 0)
(0.00931602442471 0.00136067938739 0)
(0.00937558968485 0.00137176942638 0)
(0.00951236078084 0.00118272910081 0)
(0.00956218512636 0.00116944737731 0)
(0.0097171789402 0.0010154812067 0)
(0.00976158804773 0.00098944149629 0)
(0.00991934278495 0.000831880191873 0)
(0.009969090959 0.0008128723795 0)
(0.0101004978503 0.000608427152149 0)
(0.0101698415645 0.000619058637565 0)
(0.0102410682023 0.000333208341626 0)
(0.0103427457785 0.000391382169708 0)
(0.010328439509 1.02472075796e-05 0)
(0.0104682992827 0.000121915617872 0)
(0.0103635219308 -0.000341512649777 0)
(0.01053727447 -0.000186065028271 0)
(0.0103618971805 -0.000694648368812 0)
(0.0105559551609 -0.000518454135689 0)
(0.0105446596022 -0.000854087237284 0)
(0.0103481012861 -0.00102310058988 0)
(0.00360280954814 0.00392809627797 0)
(0.00347335770939 0.00374465625082 0)
(0.00392974312793 0.00401799198518 0)
(0.00384390844102 0.00382439095935 0)
(0.00427230703013 0.00413011501556 0)
(0.00416245842683 0.0039271406585 0)
(0.00461864478274 0.00416809767752 0)
(0.00451762127554 0.00399753932982 0)
(0.0049606087775 0.00412116017521 0)
(0.00486759564077 0.00399128187634 0)
(0.00529678126439 0.0040122046076 0)
(0.0052124027479 0.00391680536077 0)
(0.00563145231781 0.00385750950981 0)
(0.00555106522063 0.00378568943017 0)
(0.00596946145723 0.00367527309679 0)
(0.00588776974449 0.00361328342731 0)
(0.00631240069443 0.00349484464186 0)
(0.00622543248985 0.00342700049848 0)
(0.00665882346314 0.00334412213293 0)
(0.00656512366473 0.00325869618067 0)
(0.0070061076032 0.00323091807442 0)
(0.0069070226116 0.00312629165269 0)
(0.00735111320791 0.00313846088493 0)
(0.00725091036678 0.00302407496745 0)
(0.00768940477592 0.00303696732476 0)
(0.00759505345967 0.00292877401669 0)
(0.00801462355506 0.00289949679353 0)
(0.00793477774226 0.00281352450778 0)
(0.00831917524124 0.00271202456877 0)
(0.00826227793079 0.00265935041863 0)
(0.00859612869955 0.00247582645641 0)
(0.00856813891082 0.00246005933599 0)
(0.00884152707231 0.00220471667972 0)
(0.00884403420005 0.00222170083737 0)
(0.00905630042016 0.00191966089099 0)
(0.00908567705536 0.0019588578073 0)
(0.00924711473229 0.00164235631185 0)
(0.00929505917945 0.0016894496993 0)
(0.00942554280769 0.0013892244694 0)
(0.00948103695633 0.00142949021823 0)
(0.00960512022649 0.00116735508942 0)
(0.0096575002689 0.00118928850734 0)
(0.00979652543764 0.000973455797153 0)
(0.00983899004057 0.000972094744723 0)
(0.01000230098 0.000795750104208 0)
(0.010034801554 0.000774994150898 0)
(0.0102135736209 0.000617697469945 0)
(0.0102438482434 0.000590711508967 0)
(0.0104111741196 0.000422160799552 0)
(0.0104529934575 0.000408937691391 0)
(0.0105719009218 0.000195284788504 0)
(0.0106405375812 0.000217052927043 0)
(0.010677977623 -7.00054774976e-05 0)
(0.0107842497892 1.58001667852e-06 0)
(0.0107254972099 -0.000371233631471 0)
(0.0108708217253 -0.000248261144693 0)
(0.0107273555656 -0.000695583449846 0)
(0.0109023094085 -0.000535368967476 0)
(0.0108960022784 -0.000850720325852 0)
(0.0107084401579 -0.00102256703207 0)
(0.0037083536147 0.00364677148512 0)
(0.00357627810881 0.00346313672105 0)
(0.00404390984408 0.00370715710128 0)
(0.00394905239633 0.00351744757047 0)
(0.00439770471475 0.00380963397243 0)
(0.00427558038031 0.00360429367257 0)
(0.00475791309234 0.00384964693643 0)
(0.00464280190863 0.00367036795778 0)
(0.00511423248879 0.00381040589254 0)
(0.00500856710412 0.00366935736625 0)
(0.00546235415218 0.00370789658281 0)
(0.00536956155877 0.00360353305435 0)
(0.00580385211663 0.00355410803985 0)
(0.0057212441116 0.00347876611694 0)
(0.00614221738242 0.0033682600223 0)
(0.00606484342545 0.00330861750682 0)
(0.00647968807616 0.00318293693648 0)
(0.00640215529147 0.00312175432589 0)
(0.00681747074629 0.00302782555986 0)
(0.00673536697131 0.00295103998674 0)
(0.00715695871848 0.00291102640842 0)
(0.00706773373579 0.00281425915884 0)
(0.00749921908086 0.00281667624861 0)
(0.00740320188605 0.00270616837753 0)
(0.00784291227451 0.00271754446956 0)
(0.0077441221674 0.00260610748241 0)
(0.00818265596762 0.00258981062837 0)
(0.00808866109179 0.00249148111538 0)
(0.00850929918597 0.00242120950895 0)
(0.00842973765249 0.00234726955443 0)
(0.00881216677072 0.00221204257719 0)
(0.00875623393071 0.0021688837898 0)
(0.00908244745876 0.00197211871272 0)
(0.00905613584139 0.00196044574157 0)
(0.00931661179112 0.0017161098422 0)
(0.00932061729225 0.00173109245671 0)
(0.00951866194581 0.0014588063905 0)
(0.00954770770128 0.00149105129552 0)
(0.00970005872392 0.00121153895295 0)
(0.00974402961038 0.00124881642153 0)
(0.00987662547627 0.000980731300657 0)
(0.00992341559214 0.00101039864241 0)
(0.0100628224393 0.000768502290033 0)
(0.0101022435255 0.000780553910932 0)
(0.0102652515137 0.000573936147203 0)
(0.0102928529707 0.000564381592312 0)
(0.0104782780495 0.00039327931969 0)
(0.0104976805158 0.000366979938101 0)
(0.0106843690546 0.000218606895317 0)
(0.0107069254563 0.000190058808981 0)
(0.0108599088912 3.66678173366e-05 0)
(0.0109012893282 2.7182311548e-05 0)
(0.0109845884097 -0.000169317798523 0)
(0.0110591063305 -0.000138390139266 0)
(0.0110503269856 -0.000413653816727 0)
(0.0111650445318 -0.000329736607583 0)
(0.0110653412085 -0.000700112780827 0)
(0.011216559174 -0.000566250553482 0)
(0.0112250047337 -0.0008522389713 0)
(0.0110509097047 -0.00101667128954 0)
(0.0038163603473 0.00336315793037 0)
(0.00369411545934 0.0031915427282 0)
(0.00415149058819 0.00338989919309 0)
(0.0040544964412 0.00321122771313 0)
(0.00451146628034 0.00347799881163 0)
(0.00438045633689 0.00327548300854 0)
(0.00488445035541 0.00351671408898 0)
(0.00475414786378 0.0033307696645 0)
(0.00525767631471 0.00348467430517 0)
(0.00513435006997 0.00333099755167 0)
(0.00562304161267 0.00339168869607 0)
(0.00551415814681 0.00327354759421 0)
(0.00597785937392 0.00324496538893 0)
(0.0058844933932 0.00315906944929 0)
(0.0063225343188 0.0030628881088 0)
(0.00624198642504 0.00299822463865 0)
(0.00665857417816 0.00287883838131 0)
(0.00658559508229 0.00281863539164 0)
(0.00698897889455 0.00272218726853 0)
(0.00691723199003 0.00265165505841 0)
(0.0073187588404 0.00260024688276 0)
(0.00724225171495 0.00251305986505 0)
(0.00765327528737 0.00249831623937 0)
(0.00756821980499 0.00239732557019 0)
(0.00799496615805 0.0023931749822 0)
(0.00790155904578 0.00228685962281 0)
(0.00834071281956 0.00226636272883 0)
(0.00824392983239 0.00216481845733 0)
(0.00868148465181 0.00210979513034 0)
(0.00859029782426 0.00202228240904 0)
(0.00900451401091 0.00192470045334 0)
(0.00892960905954 0.00185850719641 0)
(0.00929729025812 0.00171764109189 0)
(0.00924793661606 0.0016773519673 0)
(0.00955211038415 0.00149633957086 0)
(0.00953316472214 0.00148306608264 0)
(0.00976955448077 0.00126685616743 0)
(0.00977961614023 0.00127751771343 0)
(0.0099592481896 0.00103310723289 0)
(0.00999070638711 0.00106013319807 0)
(0.0101369978623 0.000798780804069 0)
(0.0101781572702 0.000830762308174 0)
(0.0103188538489 0.000570091958313 0)
(0.0103576459375 0.000593937888147 0)
(0.0105142718157 0.000356580467516 0)
(0.0105424674763 0.000361367983472 0)
(0.0107213579612 0.000167766221745 0)
(0.0107378892696 0.000149554052693 0)
(0.0109265676962 6.31574013804e-06 0)
(0.010938666788 -2.79941584773e-05 0)
(0.0111093557703 -0.000138186041808 0)
(0.0111307643976 -0.000170475801985 0)
(0.011250046728 -0.000289515420995 0)
(0.0112964910909 -0.000295278752861 0)
(0.0113376606797 -0.000476463216338 0)
(0.0114209317569 -0.000434108248806 0)
(0.0113742816268 -0.000718655339245 0)
(0.0114971928228 -0.000619589907549 0)
(0.0115285440621 -0.000868326479237 0)
(0.0113739289912 -0.00101408055986 0)
(0.00393279392965 0.00308829291741 0)
(0.00383088367006 0.00294031555152 0)
(0.00425651980328 0.00307460996671 0)
(0.00416613823859 0.00291660476704 0)
(0.00461433985151 0.00313992119187 0)
(0.00448170970924 0.00294902456325 0)
(0.00499515405958 0.00317011594847 0)
(0.00485356336569 0.00298373318757 0)
(0.00538436630211 0.00314103849516 0)
(0.00524306322462 0.00297719035272 0)
(0.00577007428036 0.00305768168293 0)
(0.00564063641573 0.00292379370229 0)
(0.00614441828387 0.00292277126178 0)
(0.00603279646427 0.00282035451925 0)
(0.00650302708297 0.00275229166316 0)
(0.00641064669821 0.00267430629417 0)
(0.00684481420018 0.00257767750401 0)
(0.00676862047425 0.0025101400043 0)
(0.00717301494671 0.00242532618083 0)
(0.00710647060272 0.00235492898452 0)
(0.0074952063966 0.00230009624767 0)
(0.00742998328758 0.00222009992372 0)
(0.00782058709839 0.00218807943747 0)
(0.00774914211133 0.00209851209572 0)
(0.0081555788573 0.00207087577205 0)
(0.00807386952171 0.0019754087657 0)
(0.0085002168787 0.00193707014999 0)
(0.00840948750035 0.00184045229334 0)
(0.00884706646553 0.00178488727302 0)
(0.00875395282026 0.00169233286425 0)
(0.0091830662313 0.00161848843116 0)
(0.00909789788209 0.00153603768057 0)
(0.00949370189656 0.00144250212118 0)
(0.00942747632531 0.00137693136242 0)
(0.00976816619422 0.0012579873809 0)
(0.00972911239441 0.00121559082958 0)
(0.0100035904423 0.00106159346104 0)
(0.00999443685458 0.00104599706218 0)
(0.0102064450112 0.000848520726817 0)
(0.0102233477562 0.000858287043557 0)
(0.0103901784355 0.00061813718579 0)
(0.0104237550995 0.000645319056814 0)
(0.0105698498384 0.000379024859193 0)
(0.0106080821579 0.000409906938067 0)
(0.01075600811 0.000149376058442 0)
(0.0107881795228 0.00016812401544 0)
(0.0109504511515 -4.95317216511e-05 0)
(0.0109709487768 -5.48274800628e-05 0)
(0.0111455279146 -0.00020485636271 0)
(0.0111562985195 -0.000235835620769 0)
(0.0113269816832 -0.000322606771368 0)
(0.0113376611721 -0.000367150206263 0)
(0.0114789588773 -0.000429833584217 0)
(0.0115042249253 -0.000464182671736 0)
(0.0115892775867 -0.000565095498654 0)
(0.0116438650304 -0.000562107329276 0)
(0.0116532625691 -0.000760404957161 0)
(0.0117461997812 -0.000701169962331 0)
(0.0118054964819 -0.000907171992978 0)
(0.0116750348035 -0.00102372862945 0)
(0.00406319997168 0.00283238786711 0)
(0.00398832104238 0.00271572903595 0)
(0.00436634460959 0.00277091699757 0)
(0.00429149068723 0.00264274360152 0)
(0.00471301054278 0.00280301247391 0)
(0.00458870583876 0.00263393603317 0)
(0.00509398398613 0.00281439225461 0)
(0.00494999156284 0.00263697775891 0)
(0.00549433486263 0.00278019184942 0)
(0.00534077281854 0.00261286214615 0)
(0.00589949281904 0.00270251307718 0)
(0.00575072240951 0.00255526164413 0)
(0.00629672324449 0.00258089178475 0)
(0.00616335930703 0.00245934157021 0)
(0.00667601721515 0.00242822637457 0)
(0.00656466322956 0.00233011105916 0)
(0.0070319648707 0.00227157471806 0)
(0.00694371773237 0.00218771402397 0)
(0.00736598748303 0.00213150695177 0)
(0.007296379799 0.00205253525544 0)
(0.00768635344363 0.00200823795511 0)
(0.00762672337114 0.00192919368443 0)
(0.00800477957311 0.00188753452531 0)
(0.00794512501614 0.00180708334317 0)
(0.00833116930051 0.00175576597279 0)
(0.0082635554908 0.00167324412042 0)
(0.00866913466305 0.00160943047174 0)
(0.00859043679826 0.00152364428696 0)
(0.00901413032299 0.00145458644158 0)
(0.00892718987141 0.00136517104647 0)
(0.00935473459994 0.00130010688784 0)
(0.0092675934162 0.00120974125775 0)
(0.00967656671252 0.00115028809213 0)
(0.00960003575856 0.00106576665249 0)
(0.00996743176786 0.00100067277671 0)
(0.00991175426155 0.000931794307419 0)
(0.0102216566678 0.000839116686092 0)
(0.0101933206711 0.000795486978799 0)
(0.0104417475941 0.000652151822217 0)
(0.0104414542702 0.000638952159409 0)
(0.0106367022992 0.000434088974812 0)
(0.0106591029129 0.000448535545368 0)
(0.010817976328 0.000194015943076 0)
(0.0108532376432 0.000224377900997 0)
(0.0109951527558 -4.4248275902e-05 0)
(0.011031927756 -1.58627348621e-05 0)
(0.0111730992188 -0.000251097535562 0)
(0.0112021703008 -0.000242424024193 0)
(0.0113511392405 -0.000405737337127 0)
(0.0113688057864 -0.000426521764873 0)
(0.0115236159283 -0.000509060629825 0)
(0.011533755429 -0.000555028620833 0)
(0.011681063903 -0.000587114510551 0)
(0.0116948303566 -0.000639068978899 0)
(0.0118118949824 -0.000681720251189 0)
(0.0118445199771 -0.000711387158045 0)
(0.0119050697855 -0.000831618262344 0)
(0.0119703499344 -0.000812814636119 0)
(0.0120582622206 -0.000973795402455 0)
(0.0119538171326 -0.00105321471048 0)
(0.00421258245665 0.00260160701393 0)
(0.00416661447527 0.00251789623463 0)
(0.00449062285269 0.00248667057261 0)
(0.00443817016423 0.00239427654225 0)
(0.00481903511254 0.00247575643167 0)
(0.00471310675765 0.00233736494149 0)
(0.00519152639369 0.00245711363793 0)
(0.00505686064618 0.00229914208191 0)
(0.00559477731904 0.00240715498487 0)
(0.00543968935221 0.00224624147468 0)
(0.00601360381684 0.00232731715406 0)
(0.00585285119233 0.00217375084249 0)
(0.00643200113643 0.00221612674171 0)
(0.0062792100636 0.00207780405518 0)
(0.00683482430946 0.00208390183098 0)
(0.00670142469154 0.0019628460745 0)
(0.00721156387564 0.0019518476457 0)
(0.00710383958931 0.00184470227194 0)
(0.00756003909811 0.00183232180622 0)
(0.00747769329839 0.00173567921296 0)
(0.00788690204806 0.00171864784872 0)
(0.00782351242195 0.00163169503169 0)
(0.00820415600833 0.00159457655905 0)
(0.00814962388595 0.00151681322691 0)
(0.00852361440421 0.00145021399387 0)
(0.00846766366382 0.00137821392767 0)
(0.00885198298378 0.00128967968664 0)
(0.0087874918634 0.001216889578 0)
(0.00918837600076 0.00112733772651 0)
(0.00911353500903 0.00104722982794 0)
(0.00952487972922 0.000977892208294 0)
(0.00944362987339 0.000888136318576 0)
(0.00984971665834 0.000846891084259 0)
(0.00977044321454 0.000751966415392 0)
(0.0101516053904 0.000726252097617 0)
(0.0100845595219 0.000637020166007 0)
(0.010423388895 0.000597022438813 0)
(0.010377648031 0.000527178481615 0)
(0.0106634502754 0.000438653928086 0)
(0.0106442833887 0.000399264304069 0)
(0.0108747908563 0.000240755485626 0)
(0.010882088858 0.000235007083775 0)
(0.0110629994192 1.12141225825e-05 0)
(0.0110911288847 3.16912995948e-05 0)
(0.0112346200279 -0.000224413202495 0)
(0.0112738056003 -0.0001943548279 0)
(0.0113964042227 -0.000433114756927 0)
(0.0114355209155 -0.000413809772264 0)
(0.011554576617 -0.000589851395184 0)
(0.0115848874038 -0.00059728453986 0)
(0.0117129287258 -0.000690594554246 0)