/*--------------------------------*- C++ -*----------------------------------*\
  =========                 |
  \\      /  F ield         | OpenFOAM: The Open Source CFD Toolbox
   \\    /   O peration     | Website:  https://openfoam.org
    \\  /    A nd           | Version:  6
     \\/     M anipulation  |
\*---------------------------------------------------------------------------*/
FoamFile
{
    version     2.0;
    format      ascii;
    class       volVectorField;
    location    "0.0339621151";
    object      qWall;
}
// * * * * * * * * * * * * * * * * * * * * * * * * * * * * * * * * * * * * * //

dimensions      [1 0 -3 0 0 0 0];

internalField   uniform (0 0 0);

boundaryField
{
    movingWall
    {
        type            calculated;
        value           nonuniform List<vector> 
60
(
(-0.36040103487 0.0158236479766 0)
(-0.359790879789 0.0155811544986 0)
(-0.358563646846 0.0153306943434 0)
(-0.357338687354 0.0150864241289 0)
(-0.356185062758 0.0148556329204 0)
(-0.355145622463 0.0146492785722 0)
(-0.354219228865 0.0144702426573 0)
(-0.353399520324 0.0143144200447 0)
(-0.352678132981 0.0141759048026 0)
(-0.352047599258 0.0140504386226 0)
(-0.351501546465 0.013935572398 0)
(-0.351034765176 0.0138299554204 0)
(-0.350643129338 0.0137330542728 0)
(-0.350323392331 0.0136449416177 0)
(-0.35007284586 0.0135658519118 0)
(-0.34988897623 0.0134957179892 0)
(-0.349769272907 0.0134338959242 0)
(-0.349711232118 0.0133791351324 0)
(-0.34971248055 0.0133298630536 0)
(-0.349770929144 0.0132847759665 0)
(-0.349884912024 0.0132434430422 0)
(-0.350053280006 0.0132064674944 0)
(-0.350275401258 0.0131750011165 0)
(-0.350551042357 0.0131499055562 0)
(-0.350880181508 0.0131311370174 0)
(-0.351262873857 0.0131177472323 0)
(-0.351699268722 0.0131084232986 0)
(-0.352189770645 0.0131021349873 0)
(-0.352735221296 0.0130984720864 0)
(-0.353336947231 0.0130975594317 0)
(-0.353996599144 0.0130997496293 0)
(-0.3547158552 0.0131053808229 0)
(-0.35549618353 0.013114736344 0)
(-0.356338871391 0.0131281296191 0)
(-0.357245395666 0.0131459520028 0)
(-0.358217979325 0.0131686101467 0)
(-0.359259986367 0.0131964251273 0)
(-0.360375820555 0.0132296113332 0)
(-0.361570286226 0.0132683605354 0)
(-0.362847802342 0.0133129407508 0)
(-0.36421209855 0.013363720075 0)
(-0.365666779397 0.0134211415933 0)
(-0.36721651038 0.0134857556087 0)
(-0.368868068913 0.013558338733 0)
(-0.370630615811 0.0136399722633 0)
(-0.372515199622 0.0137319200543 0)
(-0.37453404784 0.0138353284852 0)
(-0.376700147586 0.0139510144477 0)
(-0.379027312404 0.0140796412441 0)
(-0.381530994231 0.0142222473742 0)
(-0.384230283911 0.0143805578265 0)
(-0.387150896879 0.0145564167186 0)
(-0.390327658246 0.0147507326268 0)
(-0.393804968279 0.0149638676057 0)
(-0.397636211492 0.0151989448403 0)
(-0.401883440197 0.0154651440304 0)
(-0.40661562013 0.0157755855383 0)
(-0.411855266652 0.0161333198716 0)
(-0.417415461953 0.0165277462928 0)
(-0.421833944763 0.0168144896415 0)
)
;
    }
    fixedWalls
    {
        type            calculated;
        value           nonuniform List<vector> 
180
(
(0.00773773719114 0.0623151056965 0)
(0.00808544263438 0.0641288638263 0)
(0.00841810827377 0.0659241888809 0)
(0.00872891240327 0.0677015061625 0)
(0.00902577342144 0.0694704345823 0)
(0.00932943650143 0.0712450658822 0)
(0.00966321170808 0.0730376324321 0)
(0.010037928774 0.0748532337575 0)
(0.0104408836137 0.076687003484 0)
(0.0108375221975 0.0785240729517 0)
(0.0111875408264 0.0803429514574 0)
(0.0114672803243 0.0821233010256 0)
(0.011685384479 0.0838569637566 0)
(0.0118827399536 0.0855561957189 0)
(0.0121169905574 0.0872501159564 0)
(0.0124387798788 0.0889660324291 0)
(0.0128683025075 0.0907063035395 0)
(0.0133808655412 0.0924414897569 0)
(0.0139116982202 0.0941316527832 0)
(0.014386239944 0.0957612703202 0)
(0.0147648384824 0.0973547061162 0)
(0.015071217521 0.0989544792 0)
(0.0153783925144 0.100584245649 0)
(0.0157579611718 0.102236842841 0)
(0.0162249919712 0.103897042164 0)
(0.0167096718672 0.105563953319 0)
(0.0170873995948 0.107246356757 0)
(0.0172737725027 0.108921395063 0)
(0.0173246400044 0.110541432898 0)
(0.0172889526864 0.111497120683 0)
(0.00235777399349 0.0140541910178 0)
(0.00253800802544 0.0155164288237 0)
(0.00265233138415 0.0167047910697 0)
(0.00279599951749 0.017990470602 0)
(0.00293937811888 0.0192799419118 0)
(0.00306556249513 0.020606425625 0)
(0.00317030191659 0.0219840041795 0)
(0.00326335360129 0.0234270697708 0)
(0.00335832313309 0.0249395765167 0)
(0.00346564707872 0.0265130738795 0)
(0.00359072013333 0.0281270019584 0)
(0.00373497840407 0.029753425026 0)
(0.00389732460851 0.0313649407246 0)
(0.00407530017648 0.032943468286 0)
(0.00426637776566 0.034486914264 0)
(0.00446903548724 0.0360110720019 0)
(0.00468261698672 0.0375453942713 0)
(0.00490564742186 0.0391233801096 0)
(0.00513365465583 0.0407706933323 0)
(0.00535827632299 0.0424956513305 0)
(0.00556888831798 0.0442862378834 0)
(0.00575655315985 0.0461151250514 0)
(0.00591862300217 0.0479505462605 0)
(0.00606166877674 0.0497681772949 0)
(0.00620098586413 0.0515588780854 0)
(0.00635653041143 0.0533292994053 0)
(0.00654688338548 0.0550957599974 0)
(0.00678366981272 0.0568747520491 0)
(0.00706834645694 0.0586746386529 0)
(0.00739198844476 0.0604921878749 0)
(-0.00336020845067 0.00662245230053 0)
(-0.0044012972559 0.00640342224409 0)
(-0.005090581021 0.00630375896087 0)
(-0.00588387012731 0.00620566613119 0)
(-0.00669054525409 0.00611035265463 0)
(-0.00751363735077 0.00601224801003 0)
(-0.00833288712539 0.00590629255489 0)
(-0.00913922770772 0.00577587671995 0)
(-0.00993220465497 0.00560636048327 0)
(-0.0107207283473 0.00539819271051 0)
(-0.0115184603351 0.00516548270121 0)
(-0.01233735078 0.00492337962365 0)
(-0.0131816466208 0.0046782264786 0)
(-0.0140444051009 0.00442789743334 0)
(-0.0149074614591 0.00416835271781 0)
(-0.0157454523944 0.0038993278439 0)
(-0.0165332788775 0.00362602340559 0)
(-0.0172539869228 0.0033570445868 0)
(-0.0179028717069 0.00309957283652 0)
(-0.0184857190188 0.00285351236688 0)
(-0.0190130073712 0.00260788093089 0)
(-0.0194940652969 0.00234272892601 0)
(-0.0199339744626 0.00203705847347 0)
(-0.0203331612392 0.00167932274678 0)
(-0.0206879897739 0.00127498761393 0)
(-0.0209913429382 0.000846709079403 0)
(-0.0212338144578 0.000426242549319 0)
(-0.0214066374213 4.14352870195e-05 0)
(-0.0215060337934 -0.000295511192321 0)
(-0.0215364931364 -0.000592528790124 0)
(-0.0215097933891 -0.000872497154897 0)
(-0.0214386813257 -0.00116118959417 0)
(-0.0213280787468 -0.00147500530939 0)
(-0.0211695745283 -0.00181511624309 0)
(-0.0209440396273 -0.0021706629069 0)
(-0.0206322482914 -0.00252818370383 0)
(-0.0202274866596 -0.00288094834095 0)
(-0.0197417382804 -0.00323227919915 0)
(-0.0192005336927 -0.00359080591348 0)
(-0.0186289804191 -0.00396066629963 0)
(-0.0180376509595 -0.00433335602742 0)
(-0.0174173506738 -0.00468814059623 0)
(-0.0167459811614 -0.005003509853 0)
(-0.0160028851465 -0.00527412925066 0)
(-0.0151816117533 -0.00552091068206 0)
(-0.0142937556582 -0.00578309758849 0)
(-0.0133628202584 -0.00609327791811 0)
(-0.0124133409964 -0.00645157578278 0)
(-0.0114624793902 -0.00681995671111 0)
(-0.0105180313675 -0.0071442386323 0)
(-0.00958135682171 -0.00738922182458 0)
(-0.008650678032 -0.00756090486272 0)
(-0.00772186141774 -0.00769995942603 0)
(-0.00678805994983 -0.0078525042389 0)
(-0.00584253499459 -0.00803830110216 0)
(-0.00488360831491 -0.00823840938787 0)
(-0.00392755798776 -0.00841579021008 0)
(-0.00297557331263 -0.00856792359891 0)
(-0.00214728087239 -0.00870632455499 0)
(-0.000928395178597 -0.00899669744138 0)
(0.00413544110574 -0.016512078463 0)
(0.00443830683627 -0.0182488080442 0)
(0.00465007662368 -0.0196526865816 0)
(0.00488953242967 -0.0211504870012 0)
(0.00512025268276 -0.0226371690049 0)
(0.00533542844955 -0.0241515093903 0)
(0.00553902785736 -0.0257091808998 0)
(0.00574724602977 -0.0273278473791 0)
(0.00597553132256 -0.0290166016498 0)
(0.00623096796977 -0.0307737882226 0)
(0.00651242228921 -0.0325860406777 0)
(0.00681401958252 -0.0344317453375 0)
(0.00712771608816 -0.036287720912 0)
(0.00744495236645 -0.0381365316324 0)
(0.007758908719 -0.039971649121 0)
(0.00806746511384 -0.0417987571705 0)
(0.00837521303601 -0.0436328896162 0)
(0.00869263210554 -0.0454924795459 0)
(0.00903199350625 -0.0473925241224 0)
(0.00940165707739 -0.0493394491436 0)
(0.00980177268704 -0.0513295494816 0)
(0.010224013652 -0.0533513612076 0)
(0.0106559356561 -0.0553907520398 0)
(0.0110879785697 -0.0574365847465 0)
(0.01151950527 -0.0594847468522 0)
(0.011960560699 -0.0615390074269 0)
(0.0124280710888 -0.0636083017855 0)
(0.0129378607295 -0.0657013977134 0)
(0.0134958456296 -0.0678211229662 0)
(0.014092376836 -0.0699609503674 0)
(0.0147029693595 -0.0721062372923 0)
(0.0152967657509 -0.0742405831794 0)
(0.0158510521595 -0.0763550332323 0)
(0.0163663058338 -0.0784554470427 0)
(0.0168733196275 -0.0805629405481 0)
(0.0174249797772 -0.0827050552377 0)
(0.0180723438053 -0.0849006433885 0)
(0.0188354976093 -0.0871465577415 0)
(0.0196869543608 -0.0894151633519 0)
(0.0205614879351 -0.0916662853392 0)
(0.0213908875666 -0.093867865924 0)
(0.0221448206367 -0.0960129187917 0)
(0.0228527252831 -0.0981222626913 0)
(0.0235915487175 -0.100232265036 0)
(0.024443523521 -0.10237650033 0)
(0.0254455634943 -0.10457202014 0)
(0.0265594294189 -0.106815309951 0)
(0.0276856316445 -0.109087358049 0)
(0.0287217910734 -0.111365654639 0)
(0.0296335486184 -0.113639297295 0)
(0.0304853116868 -0.11591876872 0)
(0.0313974061249 -0.118231929252 0)
(0.0324564697463 -0.120609953559 0)
(0.0336579953443 -0.123079796717 0)
(0.0349396281588 -0.125672538072 0)
(0.0362730815696 -0.128432431908 0)
(0.0377082001271 -0.131413945533 0)
(0.0392825442301 -0.134619408928 0)
(0.0408504065624 -0.137974325768 0)
(0.0419872642758 -0.140215075036 0)
)
;
    }
    frontAndBackPlanes
    {
        type            empty;
    }
}


// ************************************************************************* //
