/*--------------------------------*- C++ -*----------------------------------*\
  =========                 |
  \\      /  F ield         | OpenFOAM: The Open Source CFD Toolbox
   \\    /   O peration     | Website:  https://openfoam.org
    \\  /    A nd           | Version:  6
     \\/     M anipulation  |
\*---------------------------------------------------------------------------*/
FoamFile
{
    version     2.0;
    format      ascii;
    class       volScalarField;
    location    "0.0339621151";
    object      rho;
}
// * * * * * * * * * * * * * * * * * * * * * * * * * * * * * * * * * * * * * //

dimensions      [1 -3 0 0 0 0 0];

internalField   nonuniform List<scalar> 
3600
(
8.34353693597e-08
8.34446163529e-08
8.34586069075e-08
8.34963394283e-08
8.35381679044e-08
8.35806556868e-08
8.36233669044e-08
8.36673040076e-08
8.37134346491e-08
8.37628110513e-08
8.38165756366e-08
8.38757911253e-08
8.39412011976e-08
8.40130915696e-08
8.40912914297e-08
8.4175223266e-08
8.42639049521e-08
8.43559728242e-08
8.44499190387e-08
8.45445903196e-08
8.46396739742e-08
8.4735762434e-08
8.48338444645e-08
8.49345218673e-08
8.50374985695e-08
8.51417226266e-08
8.52461167839e-08
8.53504388559e-08
8.54557211092e-08
8.55639720613e-08
8.35317391305e-08
8.35331594792e-08
8.35316101495e-08
8.35542698415e-08
8.35853423396e-08
8.36211082436e-08
8.36599648436e-08
8.37018400554e-08
8.37468851409e-08
8.37955064973e-08
8.38483312767e-08
8.3906072282e-08
8.39693394655e-08
8.40385024309e-08
8.41136205043e-08
8.4194390777e-08
8.42800919879e-08
8.43696168378e-08
8.44617215744e-08
8.45554556816e-08
8.46505021307e-08
8.47471352278e-08
8.48457720397e-08
8.49464304322e-08
8.50485084889e-08
8.51510769432e-08
8.5253511839e-08
8.53560609289e-08
8.54599751365e-08
8.55670840696e-08
8.36277981763e-08
8.36286552004e-08
8.36180686812e-08
8.36288985514e-08
8.36497485284e-08
8.36780259859e-08
8.37118641276e-08
8.37506001866e-08
8.37937943528e-08
8.38412892927e-08
8.38931749094e-08
8.39497040831e-08
8.40111812886e-08
8.4077871364e-08
8.41499119788e-08
8.42272020498e-08
8.43092966607e-08
8.43954188436e-08
8.44846715065e-08
8.45763619507e-08
8.4670197544e-08
8.47661689945e-08
8.48641927716e-08
8.49638070879e-08
8.50641975406e-08
8.51645819644e-08
8.52647145081e-08
8.53651793633e-08
8.54672767172e-08
8.55725373769e-08
8.37038471962e-08
8.37069984816e-08
8.36931901247e-08
8.3697361066e-08
8.37110692424e-08
8.37332321316e-08
8.37623873141e-08
8.37978209922e-08
8.38388572703e-08
8.38849915799e-08
8.39358912154e-08
8.39913783629e-08
8.40514081399e-08
8.41160482252e-08
8.41854127089e-08
8.42595289348e-08
8.4338200271e-08
8.44209875616e-08
8.45073628414e-08
8.45969187786e-08
8.46894263304e-08
8.47846519461e-08
8.48820818894e-08
8.4980824709e-08
8.50798462622e-08
8.51784325323e-08
8.5276591104e-08
8.53751315179e-08
8.54753669338e-08
8.55785934809e-08
8.37652386576e-08
8.3770790775e-08
8.37560504103e-08
8.37565909472e-08
8.37655463813e-08
8.3783065367e-08
8.38082295961e-08
8.38405330723e-08
8.3879325605e-08
8.39239718044e-08
8.39738672989e-08
8.40284819096e-08
8.40874253517e-08
8.41505060339e-08
8.42177124107e-08
8.4289098676e-08
8.43646521429e-08
8.44442578073e-08
8.45277808099e-08
8.46151388086e-08
8.47062121321e-08
8.48006016464e-08
8.48974400432e-08
8.49954836472e-08
8.50935176356e-08
8.51908613066e-08
8.52876668979e-08
8.53848323192e-08
8.54835869363e-08
8.55849842237e-08
8.3813177136e-08
8.38214020998e-08
8.38070192281e-08
8.38058295328e-08
8.38117343368e-08
8.38258277968e-08
8.38477252319e-08
8.38772291692e-08
8.39138679676e-08
8.39570387478e-08
8.40060028709e-08
8.4059965618e-08
8.41182169742e-08
8.41802673061e-08
8.42458913824e-08
8.43150678708e-08
8.43878914206e-08
8.44645418736e-08
8.45452885391e-08
8.46304052301e-08
8.47199235654e-08
8.48133397712e-08
8.49095203574e-08
8.50069663368e-08
8.51043457193e-08
8.52009989239e-08
8.52971275573e-08
8.5393580097e-08
8.54913893623e-08
8.55913316938e-08
8.38484747936e-08
8.38599619606e-08
8.38470879304e-08
8.38456825821e-08
8.3849925615e-08
8.38616233756e-08
8.38808999535e-08
8.39079172578e-08
8.39424801405e-08
8.39841549346e-08
8.40322136955e-08
8.40857090133e-08
8.41436594117e-08
8.42052519723e-08
8.42699634714e-08
8.43375886754e-08
8.44082354614e-08
8.44823190816e-08
8.45604858303e-08
8.46433627071e-08
8.47311594863e-08
8.48233408518e-08
8.49186289459e-08
8.50154079539e-08
8.51123253118e-08
8.52087471462e-08
8.53048308384e-08
8.54012296492e-08
8.54986540805e-08
8.55975534142e-08
8.38717817232e-08
8.38870846431e-08
8.38768131639e-08
8.38765597799e-08
8.38804630145e-08
8.38908037112e-08
8.39081615558e-08
8.39330672578e-08
8.39656430211e-08
8.40057190631e-08
8.40527260386e-08
8.41057209985e-08
8.41635624988e-08
8.42251466757e-08
8.42896065167e-08
8.43564568142e-08
8.44257052092e-08
8.44978914603e-08
8.45739402547e-08
8.46547628184e-08
8.4740739722e-08
8.48313852956e-08
8.49254374755e-08
8.50213456235e-08
8.51178615696e-08
8.52143908925e-08
8.53109527776e-08
8.54078613679e-08
8.55053872698e-08
8.56036124597e-08
8.38841684667e-08
8.39034363732e-08
8.38965698752e-08
8.38985660898e-08
8.39033463034e-08
8.39134167148e-08
8.39297071195e-08
8.39530736389e-08
8.39839294107e-08
8.40223858847e-08
8.40681288529e-08
8.41203802801e-08
8.41780076724e-08
8.42397375517e-08
8.4304403766e-08
8.43712079559e-08
8.44399576492e-08
8.45111647751e-08
8.45858545032e-08
8.46650706522e-08
8.47493042234e-08
8.48381892087e-08
8.49306574467e-08
8.50254289997e-08
8.51214991917e-08
8.52183339086e-08
8.53157328513e-08
8.5413553613e-08
8.55115444042e-08
8.56094077624e-08
8.38873161138e-08
8.39100901078e-08
8.39068919778e-08
8.39117557723e-08
8.39183536075e-08
8.39291902531e-08
8.39453867624e-08
8.39680239957e-08
8.39977216472e-08
8.40348096756e-08
8.40792339761e-08
8.41304770642e-08
8.41875786622e-08
8.4249276876e-08
8.43142547822e-08
8.43814750635e-08
8.44505148539e-08
8.4521715083e-08
8.45959794439e-08
8.46742652005e-08
8.47570533751e-08
8.48441289103e-08
8.49347736902e-08
8.50281694916e-08
8.51236868985e-08
8.52208827696e-08
8.53192919558e-08
8.54182555412e-08
8.55169753247e-08
8.56147954734e-08
8.38836075011e-08
8.39088049647e-08
8.39088419692e-08
8.39165408024e-08
8.39254189308e-08
8.3937823025e-08
8.39548801243e-08
8.39777439485e-08
8.40071118074e-08
8.40434120571e-08
8.40867681472e-08
8.41369195058e-08
8.41931707349e-08
8.42544446986e-08
8.43194827857e-08
8.43871867183e-08
8.44569772844e-08
8.45289508168e-08
8.46036902402e-08
8.46818308622e-08
8.47636814944e-08
8.48491505918e-08
8.49379576041e-08
8.50298726331e-08
8.5124735608e-08
8.52222339676e-08
8.53216501206e-08
8.54218333666e-08
8.55214891514e-08
8.56196536607e-08
8.38758845714e-08
8.39019682947e-08
8.3904111538e-08
8.39139102966e-08
8.39249028057e-08
8.39392293846e-08
8.39578640318e-08
8.39818616364e-08
8.40118413716e-08
8.40481772628e-08
8.40910278618e-08
8.414029536e-08
8.419554552e-08
8.42559937773e-08
8.43206405108e-08
8.43885540823e-08
8.44591603815e-08
8.45323358432e-08
8.46082293817e-08
8.46869732824e-08
8.4768546729e-08
8.48529001056e-08
8.49401764023e-08
8.50307484887e-08
8.51249448686e-08
8.52226188484e-08
8.5322877673e-08
8.54242019363e-08
8.55249325166e-08
8.5623875439e-08
8.38667950134e-08
8.38921075651e-08
8.38947410828e-08
8.3905333002e-08
8.39176351494e-08
8.39336511445e-08
8.39541259063e-08
8.39798815647e-08
8.40113135982e-08
8.40485842135e-08
8.4091714915e-08
8.41406132291e-08
8.41950140756e-08
8.42544431015e-08
8.43182941308e-08
8.4386006445e-08
8.44572014636e-08
8.45316408212e-08
8.46090416143e-08
8.46889657548e-08
8.47709689113e-08
8.485494034e-08
8.49413306571e-08
8.50309951097e-08
8.51246670991e-08
8.52223746832e-08
8.53231778196e-08
8.54254001238e-08
8.5527224876e-08
8.5627333342e-08
8.38579452433e-08
8.38811496446e-08
8.38825794743e-08
8.38924197293e-08
8.390478252e-08
8.39216952324e-08
8.39437108622e-08
8.39713799257e-08
8.40047922421e-08
8.40437773925e-08
8.40880534925e-08
8.41373450682e-08
8.41913988071e-08
8.42499785876e-08
8.43129083042e-08
8.43801195866e-08
8.44515820095e-08
8.45270804983e-08
8.46060067442e-08
8.46874221973e-08
8.47704716343e-08
8.48549032594e-08
8.49412918564e-08
8.5030738739e-08
8.51241971891e-08
8.5221836256e-08
8.53228159042e-08
8.54255658913e-08
8.55283648874e-08
8.56298953101e-08
8.38492735544e-08
8.38697795628e-08
8.38687433742e-08
8.38765189401e-08
8.38876320088e-08
8.39043281339e-08
8.39271037312e-08
8.39563166798e-08
8.39917758629e-08
8.40329425202e-08
8.4079118837e-08
8.41296712521e-08
8.41841705837e-08
8.42424751711e-08
8.43047701035e-08
8.43714837625e-08
8.44429977985e-08
8.45192397402e-08
8.45994478226e-08
8.46823729548e-08
8.47668763695e-08
8.48525425159e-08
8.49398729211e-08
8.50299196133e-08
8.51236071503e-08
8.52211700283e-08
8.53219972011e-08
8.54248803877e-08
8.55284417061e-08
8.56314926783e-08
8.38389746659e-08
8.38571933358e-08
8.38532954745e-08
8.38583810777e-08
8.38673301865e-08
8.38827666431e-08
8.39053075256e-08
8.39352861009e-08
8.39723651701e-08
8.40157172402e-08
8.40642197595e-08
8.41167780074e-08
8.41726235064e-08
8.42315319308e-08
8.42938904404e-08
8.4360502798e-08
8.44321093163e-08
8.45088376357e-08
8.45899588272e-08
8.46741749605e-08
8.47602787335e-08
8.48477372711e-08
8.49368214026e-08
8.50282552509e-08
8.51226840891e-08
8.52203069255e-08
8.53208166968e-08
8.54235495793e-08
8.55276547675e-08
8.56321800904e-08
8.38240298421e-08
8.38413335655e-08
8.38352301711e-08
8.38379561767e-08
8.38445887429e-08
8.38582005401e-08
8.38796744486e-08
8.39095057184e-08
8.39474092676e-08
8.3992450865e-08
8.40432028956e-08
8.40981333837e-08
8.41560628057e-08
8.42165347844e-08
8.42799319377e-08
8.43472065081e-08
8.44192831069e-08
8.44964554937e-08
8.45781733545e-08
8.4663356316e-08
8.47509787532e-08
8.48404962091e-08
8.49318731859e-08
8.50253171704e-08
8.51210066817e-08
8.52190017593e-08
8.53192931838e-08
8.54218151242e-08
8.55263139777e-08
8.56321439616e-08
8.38011213919e-08
8.38194930271e-08
8.38127402248e-08
8.38143586013e-08
8.38194152422e-08
8.38313913741e-08
8.38514885568e-08
8.38804870301e-08
8.39183333473e-08
8.39642087934e-08
8.40166043869e-08
8.40737212886e-08
8.41340422885e-08
8.4196826368e-08
8.42622660674e-08
8.43311856089e-08
8.44044293813e-08
8.4482324682e-08
8.45645563998e-08
8.46504580886e-08
8.47394031485e-08
8.48309713519e-08
8.49248474173e-08
8.50206757488e-08
8.5118094973e-08
8.52169436563e-08
8.53174140948e-08
8.54199368111e-08
8.55247900537e-08
8.56316616481e-08
8.37675849804e-08
8.37890674398e-08
8.37836800869e-08
8.37860318649e-08
8.37909904304e-08
8.38023156085e-08
8.38214672114e-08
8.38495116309e-08
8.38867043439e-08
8.39325134554e-08
8.39856014562e-08
8.40441817884e-08
8.41066246535e-08
8.41719948195e-08
8.42402053322e-08
8.4311712929e-08
8.43869991985e-08
8.44662236938e-08
8.4549249127e-08
8.46358839489e-08
8.472601258e-08
8.48194569435e-08
8.49157390793e-08
8.50140516317e-08
8.5113559952e-08
8.52138437933e-08
8.53151317715e-08
8.54181137321e-08
8.55234137111e-08
8.56310381508e-08
8.37220969665e-08
8.37482364932e-08
8.37461171198e-08
8.37511199244e-08
8.37578058317e-08
8.37700474943e-08
8.37894153443e-08
8.38171326531e-08
8.38536914701e-08
8.38988857243e-08
8.39517332763e-08
8.40107585992e-08
8.4074539779e-08
8.41421736524e-08
8.42133480406e-08
8.42880398613e-08
8.43661675954e-08
8.44475243228e-08
8.45319976984e-08
8.46197663916e-08
8.47111765991e-08
8.48063338229e-08
8.49047559722e-08
8.50054192008e-08
8.51072114627e-08
8.52094840843e-08
8.53123239775e-08
8.5416378762e-08
8.55223631936e-08
8.56305464855e-08
8.36649286789e-08
8.36964019026e-08
8.36988392474e-08
8.37079745864e-08
8.37180717803e-08
8.37329777971e-08
8.37541997108e-08
8.37829037934e-08
8.38196096851e-08
8.38643119698e-08
8.3916421461e-08
8.39749855236e-08
8.40391002089e-08
8.41081855702e-08
8.41818911483e-08
8.42597804233e-08
8.43411812116e-08
8.44254168253e-08
8.45122181792e-08
8.46018930147e-08
8.46950297917e-08
8.47919368947e-08
8.48922528625e-08
8.49950138685e-08
8.50991022941e-08
8.52037481939e-08
8.53087811419e-08
8.54145462083e-08
8.55216024677e-08
8.5630387944e-08
8.3597740484e-08
8.36342764484e-08
8.36416731132e-08
8.36556417396e-08
8.36702668903e-08
8.36893046229e-08
8.37140669885e-08
8.37454458966e-08
8.37837144507e-08
8.38288157881e-08
8.38804266542e-08
8.39381650576e-08
8.40018299528e-08
8.4071406499e-08
8.414674877e-08
8.42272313804e-08
8.43117701244e-08
8.43992834276e-08
8.44892287596e-08
8.45817576053e-08
8.46773715067e-08
8.47763783292e-08
8.48785587609e-08
8.49832180605e-08
8.50894902172e-08
8.51966468122e-08
8.53042662701e-08
8.54122738999e-08
8.55209162704e-08
8.56306794809e-08
8.35230042614e-08
8.35636004875e-08
8.35754974514e-08
8.35941417578e-08
8.36136170542e-08
8.36376085916e-08
8.36671910464e-08
8.37028422415e-08
8.37443501193e-08
8.37913214847e-08
8.38434605305e-08
8.39008278929e-08
8.39639115163e-08
8.4033344082e-08
8.41093676243e-08
8.41914562035e-08
8.42784460424e-08
8.43690923966e-08
8.44626046871e-08
8.45587739263e-08
8.46576988774e-08
8.47594242789e-08
8.48637674143e-08
8.49703541456e-08
8.50787122023e-08
8.51883162847e-08
8.52986281154e-08
8.54092287682e-08
8.55200380938e-08
8.56314679165e-08
8.34432392504e-08
8.34865711937e-08
8.35019319875e-08
8.35244275068e-08
8.35483160079e-08
8.35772943163e-08
8.36122529406e-08
8.36532391112e-08
8.3699438593e-08
8.37499154985e-08
8.38041547053e-08
8.38624168915e-08
8.39256693021e-08
8.39950617436e-08
8.40712478593e-08
8.41540225296e-08
8.42425014593e-08
8.43356200368e-08
8.4432521455e-08
8.45326138417e-08
8.46354295892e-08
8.47405417957e-08
8.48476179586e-08
8.49564762092e-08
8.50670011681e-08
8.51789572514e-08
8.52918905475e-08
8.5405269146e-08
8.5518810581e-08
8.56327613023e-08
8.33603141037e-08
8.34051799631e-08
8.34228121528e-08
8.34480381091e-08
8.34754120828e-08
8.35087422918e-08
8.35488485715e-08
8.35954452985e-08
8.36471551913e-08
8.37024518585e-08
8.37604532596e-08
8.38213701025e-08
8.38863254315e-08
8.39566780039e-08
8.40333248507e-08
8.41164312693e-08
8.42056280904e-08
8.43003380815e-08
8.43999067694e-08
8.45035371862e-08
8.46102698449e-08
8.47191653162e-08
8.48295795035e-08
8.49412856975e-08
8.50543255599e-08
8.51687137156e-08
8.52842411349e-08
8.54005298058e-08
8.55172866101e-08
8.56345557491e-08
8.32750646874e-08
8.33207060662e-08
8.33396566647e-08
8.33665972485e-08
8.33964257049e-08
8.34331326612e-08
8.34775814243e-08
8.35293084561e-08
8.35865392958e-08
8.36472827945e-08
8.37103047947e-08
8.37756123246e-08
8.38441723557e-08
8.39171804894e-08
8.39954766925e-08
8.40794502719e-08
8.41692570901e-08
8.42649375394e-08
8.43662635859e-08
8.44725249622e-08
8.45825610586e-08
8.46950976331e-08
8.48091572679e-08
8.49242648891e-08
8.50403616668e-08
8.51575563717e-08
8.52759069741e-08
8.53953397914e-08
8.55156951969e-08
8.5636828427e-08
8.31873632135e-08
8.32335586618e-08
8.32533394217e-08
8.32813656525e-08
8.33128668773e-08
8.33520290217e-08
8.3399816432e-08
8.34557230524e-08
8.35177940326e-08
8.35838196034e-08
8.36523821794e-08
8.3723280175e-08
8.37971360632e-08
8.38746892011e-08
8.39564178907e-08
8.40426654246e-08
8.41338948572e-08
8.42306433971e-08
8.43331587279e-08
8.44410668581e-08
8.45533808622e-08
8.46688364826e-08
8.47863002113e-08
8.49050215384e-08
8.50246768085e-08
8.51452745163e-08
8.52669950033e-08
8.53900010603e-08
8.55142629403e-08
8.56394784533e-08
8.30965686658e-08
8.31434982385e-08
8.31640770214e-08
8.31930203765e-08
8.32258510596e-08
8.32669017727e-08
8.33172082659e-08
8.33762775652e-08
8.34421578077e-08
8.35126937418e-08
8.35865334573e-08
8.36633899091e-08
8.37435242057e-08
8.38271110662e-08
8.39140932709e-08
8.40045081809e-08
8.40987827163e-08
8.41976155975e-08
8.43015479538e-08
8.44106043718e-08
8.45242485322e-08
8.4641595944e-08
8.47616877577e-08
8.48837027666e-08
8.50070936971e-08
8.51316470309e-08
8.52574241451e-08
8.53845576255e-08
8.55129771894e-08
8.5642235144e-08
8.30020874369e-08
8.30500745229e-08
8.30716827499e-08
8.31017151112e-08
8.31359532855e-08
8.31787866942e-08
8.32312126239e-08
8.32927097755e-08
8.33614254403e-08
8.34354699197e-08
8.35137856086e-08
8.35961728955e-08
8.36826537008e-08
8.37729341568e-08
8.38664514529e-08
8.39628119485e-08
8.40620934206e-08
8.41647430273e-08
8.42712402152e-08
8.43818348951e-08
8.44964857271e-08
8.46149155336e-08
8.47366797421e-08
8.48612386515e-08
8.49880638326e-08
8.5116749535e-08
8.52470408419e-08
8.53787257921e-08
8.55114504278e-08
8.56446028305e-08
8.29037061787e-08
8.29530011963e-08
8.29758992077e-08
8.30073296595e-08
8.30433139322e-08
8.30881967592e-08
8.31427847245e-08
8.32064201017e-08
8.32773561307e-08
8.3354071418e-08
8.34359313296e-08
8.35229545349e-08
8.36150963786e-08
8.37118238472e-08
8.38122756214e-08
8.39156857643e-08
8.40216299674e-08
8.41299862718e-08
8.42407999412e-08
8.43542231053e-08
8.44705117084e-08
8.45899758241e-08
8.47128557683e-08
8.48391961569e-08
8.49687935345e-08
8.51012222527e-08
8.52358905649e-08
8.53720888596e-08
8.55090335027e-08
8.56459336317e-08
8.56772208219e-08
8.57963320417e-08
8.59201704605e-08
8.60455893388e-08
8.61683751752e-08
8.6284810263e-08
8.63931328159e-08
8.64941413611e-08
8.65906155105e-08
8.66858972993e-08
8.67824395992e-08
8.6881035836e-08
8.6980897549e-08
8.70802224437e-08
8.71768005743e-08
8.7268487449e-08
8.73536313569e-08
8.74315077979e-08
8.75026178035e-08
8.75686392388e-08
8.76319301887e-08
8.7694618137e-08
8.77575035736e-08
8.78194204807e-08
8.7877778062e-08
8.79303010698e-08
8.79757470566e-08
8.80159513144e-08
8.80428682186e-08
8.8088686024e-08
8.56789798491e-08
8.57961536021e-08
8.59174585954e-08
8.60401736989e-08
8.61607363681e-08
8.6275933719e-08
8.63840719694e-08
8.64855570328e-08
8.65825527358e-08
8.66778747179e-08
8.67737184122e-08
8.68708706267e-08
8.69686701587e-08
8.70654929896e-08
8.71593461209e-08
8.72483400641e-08
8.73310743323e-08
8.74070027171e-08
8.74766748316e-08
8.75416510706e-08
8.7603988912e-08
8.76653754695e-08
8.77261673654e-08
8.77848844663e-08
8.78387025555e-08
8.788491326e-08
8.7921332185e-08
8.79483762134e-08
8.79589733572e-08
8.79918459243e-08
8.56820783447e-08
8.57960521778e-08
8.5913380918e-08
8.60318747303e-08
8.614874616e-08
8.62614156027e-08
8.63683505764e-08
8.64695709105e-08
8.65665230614e-08
8.66613277527e-08
8.67557750685e-08
8.68505940546e-08
8.69453122798e-08
8.70386157156e-08
8.71288706873e-08
8.72145522693e-08
8.72945605007e-08
8.73684945872e-08
8.74368319767e-08
8.75008414191e-08
8.75621229871e-08
8.76218431993e-08
8.76799110451e-08
8.77345614206e-08
8.77827876945e-08
8.78216348217e-08
8.78486068313e-08
8.78643189439e-08
8.78643066585e-08
8.78923904248e-08
8.56855884354e-08
8.57963022755e-08
8.59097924488e-08
8.60243672621e-08
8.61379081978e-08
8.62483520991e-08
8.63542559623e-08
8.64552442564e-08
8.65520797476e-08
8.66462350991e-08
8.67391401401e-08
8.68315115506e-08
8.69231148226e-08
8.7012991266e-08
8.70998916024e-08
8.71826444329e-08
8.72603949592e-08
8.73327926453e-08
8.74001320852e-08
8.7463309176e-08
8.75234615293e-08
8.75813186818e-08
8.76364747269e-08
8.7687009503e-08
8.77298833293e-08
8.77622185061e-08
8.77818888814e-08
8.77905879364e-08
8.77860235581e-08
8.78140264343e-08
8.56895396241e-08
8.57971134699e-08
8.59069793685e-08
8.60179572549e-08
8.61285548739e-08
8.62371664864e-08
8.63423950111e-08
8.64434443489e-08
8.65403732353e-08
8.66339901933e-08
8.67253757775e-08
8.68152954857e-08
8.69038552059e-08
8.69905497985e-08
8.70745564066e-08
8.71550189949e-08
8.72312211591e-08
8.73027191576e-08
8.73694842467e-08
8.74319483805e-08
8.74907916082e-08
8.75464303331e-08
8.75983633361e-08
8.76447712172e-08
8.76828245202e-08
8.77099490362e-08
8.77245499073e-08
8.77292185159e-08
8.77227200529e-08
8.77516229557e-08
8.56937106362e-08
8.57983884862e-08
8.59049293046e-08
8.60126836321e-08
8.6120754568e-08
8.62279477378e-08
8.63328808059e-08
8.64343234001e-08
8.65316187697e-08
8.66248987106e-08
8.67149033411e-08
8.68025036601e-08
8.68882435085e-08
8.69721596486e-08
8.70538751164e-08
8.71327759034e-08
8.72081440141e-08
8.72792896681e-08
8.73457485824e-08
8.74074601669e-08
8.74647303011e-08
8.75178539236e-08
8.75664799385e-08
8.76091010656e-08
8.76432136097e-08
8.76665584939e-08
8.76779438709e-08
8.76804778753e-08
8.76733161553e-08
8.77036295607e-08
8.56980534105e-08
8.58000964723e-08
8.59036005718e-08
8.60084578638e-08
8.61143312131e-08
8.6220394416e-08
8.63252661622e-08
8.6427302823e-08
8.65251633905e-08
8.66183209909e-08
8.67071843468e-08
8.6792753153e-08
8.68760534982e-08
8.6957699532e-08
8.70377417928e-08
8.7115719475e-08
8.71907855278e-08
8.72618967323e-08
8.73281158312e-08
8.73889446473e-08
8.74444541602e-08
8.74949999236e-08
8.75405384091e-08
8.7579953673e-08
8.76110712822e-08
8.76318975663e-08
8.76414994998e-08
8.7643225855e-08
8.76363371263e-08
8.76686786204e-08
8.57025222446e-08
8.58022089994e-08
8.59029882068e-08
8.60052773062e-08
8.61092366136e-08
8.62143511924e-08
8.63192396976e-08
8.64219101381e-08
8.65204300883e-08
8.6613680768e-08
8.67017536407e-08
8.67857531275e-08
8.68671537945e-08
8.69471106972e-08
8.70260467032e-08
8.71035729223e-08
8.71786319603e-08
8.72497927837e-08
8.73156888371e-08
8.73754975096e-08
8.74291937282e-08
8.74773033287e-08
8.75201389423e-08
8.75569813016e-08
8.75859888746e-08
8.76054137915e-08
8.76144541819e-08
8.76164865658e-08
8.76107555581e-08
8.76457294724e-08
8.57070320935e-08
8.58047092555e-08
8.59031562163e-08
8.60032546528e-08
8.61055651894e-08
8.62098150609e-08
8.63146409445e-08
8.64178176036e-08
8.65169797426e-08
8.66105340805e-08
8.66982735829e-08
8.67813327672e-08
8.68615181923e-08
8.69404172547e-08
8.70187430832e-08
8.7096123609e-08
8.71712731322e-08
8.72424125773e-08
8.73078461058e-08
8.73665513901e-08
8.74185012951e-08
8.74644244223e-08
8.75049850816e-08
8.75398755789e-08
8.75676273976e-08
8.75867078563e-08
8.75962745812e-08
8.75995369497e-08
8.75956868684e-08
8.76336204116e-08
8.57115424255e-08
8.58077097386e-08
8.5904354545e-08
8.60027048107e-08
8.61035952894e-08
8.62069321923e-08
8.63114259506e-08
8.641479264e-08
8.65144566656e-08
8.66085114779e-08
8.66964695611e-08
8.67793684125e-08
8.68591479011e-08
8.69376502418e-08
8.70157783243e-08
8.70931616558e-08
8.71683422331e-08
8.7239301621e-08
8.7304144992e-08
8.73617539975e-08
8.7412138622e-08
8.74562164319e-08
8.7494995107e-08
8.75286139745e-08
8.7555999745e-08
8.75757304008e-08
8.75867070479e-08
8.7591825284e-08
8.75902554915e-08
8.76310545964e-08
8.57160981232e-08
8.5811449435e-08
8.59069647426e-08
8.6004047824e-08
8.61036730298e-08
8.62058941054e-08
8.63096047911e-08
8.64126934342e-08
8.65126408201e-08
8.66074077791e-08
8.66962279422e-08
8.67798607079e-08
8.68601079427e-08
8.6938835513e-08
8.70170352849e-08
8.70943805926e-08
8.71693802513e-08
8.72399464665e-08
8.730412507e-08
8.73607691594e-08
8.74099186744e-08
8.7452643025e-08
8.74902806005e-08
8.75234252766e-08
8.7551344511e-08
8.75725520382e-08
8.75854977407e-08
8.75927088965e-08
8.75934117925e-08
8.76365886447e-08
8.57207196831e-08
8.58160867273e-08
8.59112271532e-08
8.60075211984e-08
8.61059661354e-08
8.62067791708e-08
8.63091942891e-08
8.64115282509e-08
8.6511583162e-08
8.66073465996e-08
8.66977418532e-08
8.6783029061e-08
8.68645639556e-08
8.6943991992e-08
8.70223231638e-08
8.70993852052e-08
8.71738658561e-08
8.72438153382e-08
8.73073474841e-08
8.73633142089e-08
8.741174319e-08
8.74537961668e-08
8.74910935863e-08
8.75246184885e-08
8.75538460373e-08
8.75770457467e-08
8.75921135882e-08
8.76012562995e-08
8.76038429797e-08
8.76486739198e-08
8.57252839557e-08
8.58215107425e-08
8.5917021296e-08
8.60129785766e-08
8.6110322909e-08
8.62094916942e-08
8.63102290218e-08
8.64115066913e-08
8.65116540597e-08
8.6608786801e-08
8.67014553484e-08
8.67892020945e-08
8.68726563283e-08
8.69530419781e-08
8.70313679735e-08
8.71077769475e-08
8.71813774891e-08
8.72505611658e-08
8.73136061246e-08
8.73693550054e-08
8.7417753273e-08
8.74599614252e-08
8.74977729832e-08
8.75324229475e-08
8.75634376343e-08
8.75887355462e-08
8.76056807982e-08
8.7616282958e-08
8.76201121792e-08
8.7665852467e-08
8.57295368322e-08
8.58273543206e-08
8.59238949268e-08
8.60199498188e-08
8.61163632613e-08
8.62138620806e-08
8.63128319759e-08
8.64130398609e-08
8.6513446829e-08
8.66123304145e-08
8.67078068873e-08
8.67985506803e-08
8.68842835156e-08
8.69656915395e-08
8.70438059576e-08
8.71192422497e-08
8.7191738102e-08
8.72601847021e-08
8.73230819565e-08
8.73792286754e-08
8.74283931032e-08
8.74716004226e-08
8.75106566059e-08
8.75468879225e-08
8.75797665417e-08
8.76068746333e-08
8.76251778304e-08
8.76366395428e-08
8.76410326932e-08
8.76871293001e-08
8.57332077932e-08
8.58331502076e-08
8.59312576585e-08
8.60278587552e-08
8.61236909877e-08
8.62198098203e-08
8.63172832907e-08
8.6416687719e-08
8.65176094326e-08
8.66184796743e-08
8.67169748016e-08
8.68108838192e-08
8.68989864295e-08
8.69814057714e-08
8.70592207516e-08
8.7133609232e-08
8.72050561993e-08
8.72730414978e-08
8.7336308561e-08
8.73935610693e-08
8.74442759468e-08
8.74891834933e-08
8.7529932722e-08
8.75678228666e-08
8.76022699838e-08
8.76306555398e-08
8.76497438997e-08
8.76615785323e-08
8.76660680987e-08
8.77123193808e-08
8.57361112192e-08
8.58384729664e-08
8.59385547294e-08
8.60362064233e-08
8.61320506927e-08
8.62274342604e-08
8.63240173985e-08
8.6423063619e-08
8.65246920893e-08
8.66274874836e-08
8.67287895831e-08
8.68256535479e-08
8.69160344182e-08
8.69995295935e-08
8.70772423827e-08
8.71508830653e-08
8.72216811563e-08
8.72897194971e-08
8.73539808543e-08
8.7413020099e-08
8.74659117165e-08
8.75129460875e-08
8.75554920248e-08
8.75947903759e-08
8.76303057101e-08
8.76594303274e-08
8.76789262975e-08
8.76909760542e-08
8.76954929522e-08
8.77420999942e-08
8.5738180133e-08
8.58430032453e-08
8.59453491393e-08
8.6044642404e-08
8.61413545054e-08
8.62369739963e-08
8.63335182964e-08
8.64327001656e-08
8.65350410055e-08
8.66393362314e-08
8.67428274814e-08
8.68421480172e-08
8.69346618582e-08
8.70194964559e-08
8.70976718517e-08
8.71712620461e-08
8.72421139196e-08
8.73108605963e-08
8.73767099637e-08
8.74380390214e-08
8.74934531649e-08
8.75427213456e-08
8.75868901167e-08
8.76271950051e-08
8.76633142653e-08
8.76928696924e-08
8.77127664261e-08
8.77252975883e-08
8.77302072967e-08
8.77776850557e-08
8.57394630229e-08
8.58465621504e-08
8.59513631822e-08
8.60529684469e-08
8.61516130523e-08
8.62486625165e-08
8.6346136572e-08
8.64458922612e-08
8.65487341103e-08
8.6653805631e-08
8.67586034101e-08
8.68597569369e-08
8.69543299309e-08
8.70410180078e-08
8.71205613884e-08
8.71951058497e-08
8.7266883302e-08
8.73369754467e-08
8.74048156207e-08
8.74686367596e-08
8.75265980479e-08
8.75779591698e-08
8.76234765756e-08
8.76644690226e-08
8.77009817198e-08
8.77310277697e-08
8.77517176222e-08
8.77653504235e-08
8.77713182646e-08
8.78202985952e-08
8.57401294598e-08
8.58491704284e-08
8.59565373984e-08
8.60611357584e-08
8.61628380484e-08
8.62625526513e-08
8.63618966328e-08
8.64625640036e-08
8.65655643424e-08
8.66705835314e-08
8.67757715971e-08
8.68781939111e-08
8.69749011002e-08
8.70641649815e-08
8.71461906199e-08
8.72228261251e-08
8.72963890406e-08
8.73682865972e-08
8.74382203514e-08
8.7504407527e-08
8.75646949956e-08
8.76179300311e-08
8.76646389233e-08
8.77062783418e-08
8.77433372994e-08
8.7774291532e-08
8.77964427056e-08
8.78119537996e-08
8.78197108837e-08
8.78707305161e-08
8.57404876617e-08
8.5851118097e-08
8.59610938884e-08
8.60692465724e-08
8.61749637592e-08
8.62783882703e-08
8.63803805969e-08
8.64822235899e-08
8.65850898434e-08
8.66893903776e-08
8.67942710646e-08
8.68976035263e-08
8.69966658752e-08
8.70893010666e-08
8.71749246371e-08
8.72547091668e-08
8.73307436107e-08
8.74046459466e-08
8.74764848214e-08
8.75446845069e-08
8.76070037115e-08
8.7662013616e-08
8.77100385563e-08
8.77526406859e-08
8.77907256692e-08
8.78232208099e-08
8.78475669944e-08
8.78656625288e-08
8.78757893916e-08
8.7929159755e-08
8.57409775999e-08
8.58529754197e-08
8.5965538588e-08
8.60775319247e-08
8.61878097141e-08
8.62955827881e-08
8.64007547769e-08
8.65040481702e-08
8.66067550556e-08
8.67100905388e-08
8.68143790183e-08
8.69185271837e-08
8.70202191799e-08
8.71168933651e-08
8.72070009321e-08
8.72907338227e-08
8.73696778194e-08
8.74455701587e-08
8.75189807774e-08
8.7588812575e-08
8.76529925234e-08
8.77099357661e-08
8.77597233556e-08
8.78038934903e-08
8.78436559626e-08
8.78783370612e-08
8.79054771381e-08
8.79266357396e-08
8.79394533764e-08
8.7995250885e-08
8.57421050019e-08
8.58554882626e-08
8.59705530074e-08
8.60862854795e-08
8.62010954395e-08
8.63133283244e-08
8.64219514356e-08
8.65270855801e-08
8.66300475927e-08
8.67327518503e-08
8.68366518939e-08
8.69417404995e-08
8.70462357131e-08
8.7147279333e-08
8.72423420881e-08
8.73304773333e-08
8.74125713505e-08
8.74903980914e-08
8.75651379586e-08
8.76364131398e-08
8.77025398698e-08
8.77618476653e-08
8.7814070232e-08
8.78605324111e-08
8.79026003492e-08
8.79399537063e-08
8.79702409347e-08
8.79946760303e-08
8.80102627231e-08
8.80684064486e-08
8.57443192545e-08
8.58593666321e-08
8.59767904491e-08
8.60957684273e-08
8.62145098468e-08
8.63308135595e-08
8.64429556717e-08
8.65505043622e-08
8.6654624399e-08
8.67576120187e-08
8.68617543452e-08
8.69680090984e-08
8.70752306434e-08
8.71804987998e-08
8.72804993792e-08
8.73731806635e-08
8.74586206029e-08
8.75385148579e-08
8.76146587128e-08
8.76875221685e-08
8.77559516572e-08
8.78182199054e-08
8.78735957294e-08
8.79230044364e-08
8.79678375974e-08
8.80081185337e-08
8.80416661814e-08
8.80693931528e-08
8.80876829194e-08
8.8148034758e-08
8.57478797102e-08
8.58650450938e-08
8.59846544853e-08
8.61061271902e-08
8.62278210025e-08
8.63474830816e-08
8.64631006407e-08
8.65737982911e-08
8.66803453304e-08
8.67849383531e-08
8.68902125381e-08
8.69978381384e-08
8.71074000624e-08
8.72162789342e-08
8.73207816449e-08
8.74179738042e-08
8.75070866556e-08
8.75895466254e-08
8.76676027205e-08
8.77425417048e-08
8.78137965997e-08
8.78796133345e-08
8.79387311063e-08
8.79915499788e-08
8.80394003648e-08
8.80826716429e-08
8.81194458312e-08
8.81503986323e-08
8.81712972278e-08
8.82337393837e-08
8.575276956e-08
8.58725231938e-08
8.59941597424e-08
8.61173646155e-08
8.62409882245e-08
8.63632412829e-08
8.64822606746e-08
8.65968679465e-08
8.67071966272e-08
8.68148232403e-08
8.69221727227e-08
8.70313036659e-08
8.71426054876e-08
8.72541897228e-08
8.73625310758e-08
8.74641755074e-08