/*--------------------------------*- C++ -*----------------------------------*\
  =========                 |
  \\      /  F ield         | OpenFOAM: The Open Source CFD Toolbox
   \\    /   O peration     | Website:  https://openfoam.org
    \\  /    A nd           | Version:  6
     \\/     M anipulation  |
\*---------------------------------------------------------------------------*/
FoamFile
{
    version     2.0;
    format      ascii;
    class       volVectorField;
    location    "0.0339621151";
    object      U;
}
// * * * * * * * * * * * * * * * * * * * * * * * * * * * * * * * * * * * * * //

dimensions      [0 1 -1 0 0 0 0];

internalField   nonuniform List<vector> 
3600
(
(-0.278140382265 0.344824471061 0)
(-0.535333170429 0.185130522079 0)
(-0.710267095187 0.108717516653 0)
(-0.853732762406 0.0728592893197 0)
(-0.97291379803 0.0588823644173 0)
(-1.08271605467 0.0534702455104 0)
(-1.18767943806 0.0511348973753 0)
(-1.28944681561 0.0498105941929 0)
(-1.3885792863 0.0490155964582 0)
(-1.48578107568 0.048598778319 0)
(-1.58193878499 0.0483749585012 0)
(-1.67787351573 0.0481113217199 0)
(-1.77403409197 0.0475963188792 0)
(-1.87023772662 0.0466591446845 0)
(-1.96552104522 0.0451370921869 0)
(-2.05822833444 0.0428941932377 0)
(-2.14643621722 0.0399624776992 0)
(-2.22859230742 0.0366841795824 0)
(-2.30399045782 0.0336303129855 0)
(-2.37272895052 0.0312544038387 0)
(-2.43517213911 0.0295383023787 0)
(-2.49134523291 0.0279569036139 0)
(-2.54074878037 0.0258358927573 0)
(-2.58272743514 0.0228472087225 0)
(-2.617082348 0.0192785058915 0)
(-2.64444636912 0.0158906471404 0)
(-2.66614485506 0.0134661487543 0)
(-2.68363335393 0.0123321497746 0)
(-2.69784364492 0.0121233807344 0)
(-2.70875029453 0.0118948808993 0)
(-0.145744183004 0.58447022559 0)
(-0.393109849454 0.394429538159 0)
(-0.592487172716 0.282070611849 0)
(-0.772408493117 0.222489912394 0)
(-0.92761059298 0.197053944468 0)
(-1.07011987203 0.186021693841 0)
(-1.20479818635 0.17972979894 0)
(-1.33391512837 0.174659842711 0)
(-1.45816773701 0.170427471212 0)
(-1.57806349821 0.167397232244 0)
(-1.69430852418 0.165742936088 0)
(-1.80780618775 0.165202534786 0)
(-1.91940549005 0.165078569786 0)
(-2.02954113893 0.164310615313 0)
(-2.13792815838 0.161682945005 0)
(-2.24351818266 0.156274887351 0)
(-2.34481480687 0.148002502552 0)
(-2.44039118433 0.137789358912 0)
(-2.52926952695 0.127044325953 0)
(-2.61092271444 0.116737165751 0)
(-2.68498434106 0.106817084673 0)
(-2.75100183858 0.0964765092908 0)
(-2.8085008334 0.0850318607415 0)
(-2.85731733836 0.072681054344 0)
(-2.89789207974 0.0605455238512 0)
(-2.93123723152 0.0500096713317 0)
(-2.95854602879 0.0418762309646 0)
(-2.98068281656 0.035891914376 0)
(-2.99785053516 0.0308414891028 0)
(-3.00956758328 0.0250235075662 0)
(-0.0846267724204 0.79118632346 0)
(-0.310959375913 0.606551538523 0)
(-0.513378043775 0.476796324413 0)
(-0.715217520035 0.395341762196 0)
(-0.899549678072 0.354157435676 0)
(-1.07187255151 0.333154907775 0)
(-1.23487374705 0.319938846533 0)
(-1.39050623373 0.309049332539 0)
(-1.53943252016 0.299382563635 0)
(-1.68194807837 0.291325365313 0)
(-1.81845469699 0.285351949255 0)
(-1.94966982177 0.281440820271 0)
(-2.07651357475 0.278839708247 0)
(-2.19978197639 0.276044554613 0)
(-2.31980389141 0.271134318824 0)
(-2.43630205106 0.262537312083 0)
(-2.54852398563 0.249866271748 0)
(-2.65549272092 0.234126089986 0)
(-2.75616473617 0.21696072735 0)
(-2.84944200111 0.199474654329 0)
(-2.93418895109 0.181628846853 0)
(-3.00942557795 0.162717839752 0)
(-3.07467397274 0.142454453769 0)
(-3.13022207221 0.12167628508 0)
(-3.17705231264 0.102073467955 0)
(-3.21639722919 0.0851863673387 0)
(-3.24915584265 0.071461301854 0)
(-3.27551403198 0.0599948888718 0)
(-3.2949743158 0.048993851626 0)
(-3.30672323154 0.0364934124228 0)
(-0.0603016948083 0.978907978612 0)
(-0.270692583478 0.813722606745 0)
(-0.464923647122 0.685704512168 0)
(-0.672792443795 0.594403059311 0)
(-0.872799208071 0.542054856049 0)
(-1.06546520339 0.511757521861 0)
(-1.25044146549 0.490925050867 0)
(-1.42827280928 0.473109433269 0)
(-1.59886011261 0.456579122828 0)
(-1.7618575259 0.441648067659 0)
(-1.9170460933 0.429116099074 0)
(-2.0646491764 0.419390448825 0)
(-2.2053560517 0.41194541809 0)
(-2.34009091176 0.405129583706 0)
(-2.46969909329 0.396565216694 0)
(-2.59472833089 0.384149352271 0)
(-2.71532701787 0.367078102968 0)
(-2.83115538565 0.346052508787 0)
(-2.94127398826 0.322425400274 0)
(-3.04415397797 0.297043792288 0)
(-3.13799608622 0.269858814065 0)
(-3.22133816268 0.240622706989 0)
(-3.29364515598 0.209932037757 0)
(-3.35549030163 0.179558628112 0)
(-3.40816087419 0.151685345874 0)
(-3.45289580081 0.12763730141 0)
(-3.4902052753 0.107093107289 0)
(-3.51966440071 0.088309077773 0)
(-3.54026778106 0.0690655736579 0)
(-3.55109171571 0.0475661460889 0)
(-0.0516820424544 1.15186159552 0)
(-0.255554740666 1.00751702022 0)
(-0.442042829396 0.891081144498 0)
(-0.64911247392 0.800006944836 0)
(-0.855163865614 0.743027108531 0)
(-1.05884594781 0.706785214497 0)
(-1.25787165872 0.679875206726 0)
(-1.4515285248 0.655718854376 0)
(-1.63887393406 0.632205326039 0)
(-1.81882285731 0.609557866387 0)
(-1.99038237479 0.588899801159 0)
(-2.15300324276 0.57120709952 0)
(-2.30674489784 0.556480652486 0)
(-2.45222363394 0.543342318888 0)
(-2.59043471953 0.529403235178 0)
(-2.72252408208 0.512334723159 0)
(-2.84947292723 0.490907898394 0)
(-2.97166510164 0.465154318088 0)
(-3.08849792757 0.435590424454 0)
(-3.19835583213 0.402392203758 0)
(-3.29913442988 0.365440666269 0)
(-3.38911538486 0.325202952369 0)
(-3.46767887394 0.283479079244 0)
(-3.53539735272 0.243090761152 0)
(-3.59345762476 0.206544620995 0)
(-3.64279691722 0.174638318277 0)
(-3.68349568659 0.146063195285 0)
(-3.7147669126 0.118269875288 0)
(-3.73549560427 0.0889047152624 0)
(-3.74497311453 0.0567681034328 0)
(-0.0486098117953 1.32117467595 0)
(-0.252671447136 1.19473137708 0)
(-0.434790896656 1.09251339922 0)
(-0.639728034054 1.0069617212 0)
(-0.84705403436 0.950266649792 0)
(-1.05550744643 0.911631191784 0)
(-1.26214989034 0.881045971929 0)
(-1.46565552529 0.852191325198 0)
(-1.66458001401 0.82273878542 0)
(-1.85733654973 0.792775561923 0)
(-2.0423069145 0.763635499059 0)
(-2.21816420479 0.736822728164 0)
(-2.38413977066 0.713000059855 0)
(-2.54018099315 0.69140995373 0)
(-2.68699308017 0.67013530363 0)
(-2.82590066806 0.64704843287 0)
(-2.95841384355 0.620659718929 0)
(-3.08553599519 0.590168039529 0)
(-3.2071459294 0.554903850869 0)
(-3.32190094588 0.514074498839 0)
(-3.42782465817 0.467388971193 0)
(-3.52324777339 0.416073892486 0)
(-3.60749149921 0.36316021674 0)
(-3.68087134286 0.312421327206 0)
(-3.74409320109 0.26651023208 0)
(-3.79751436293 0.225592774828 0)
(-3.84076996817 0.187460038406 0)
(-3.87296098371 0.149020548613 0)
(-3.89322843776 0.108098528966 0)
(-3.90134585938 0.0643160136965 0)
(-0.0474884546337 1.49172183811 0)
(-0.255711509025 1.3798741579 0)
(-0.436680915846 1.29124115044 0)
(-0.640418762235 1.21302239416 0)
(-0.847494576976 1.15928076052 0)
(-1.05742804199 1.12083427326 0)
(-1.26743010017 1.08881021065 0)
(-1.47616393085 1.05718359095 0)
(-1.68212608894 1.02342586817 0)
(-1.8835919117 0.987390809042 0)
(-2.07862690882 0.950431416928 0)
(-2.26533739897 0.91439169093 0)
(-2.44217823968 0.880545511435 0)
(-2.60828700423 0.848939610095 0)
(-2.76375985299 0.818519753398 0)
(-2.90966938312 0.787794251647 0)
(-3.04763007614 0.755299643103 0)
(-3.17899443494 0.719465015101 0)
(-3.30412127715 0.678350680229 0)
(-3.42221169521 0.630086757602 0)
(-3.53182344903 0.574113347514 0)
(-3.63166400192 0.512264950956 0)
(-3.72108128641 0.448537774471 0)
(-3.79996435723 0.387337210429 0)
(-3.86825154621 0.331260913206 0)
(-3.92550916026 0.279914046583 0)
(-3.97091671893 0.23053385007 0)
(-4.00364354254 0.179935914109 0)
(-4.02333236582 0.126439886932 0)
(-4.03039001012 0.0705389840916 0)
(-0.0467914382107 1.66590891949 0)
(-0.260865579533 1.56620910494 0)
(-0.442983011957 1.48948084106 0)
(-0.647075829607 1.41851365925 0)
(-0.854191287963 1.36856242264 0)
(-1.06451287393 1.33156639314 0)
(-1.27563774073 1.2995506782 0)
(-1.48655552856 1.26673747793 0)
(-1.69607236084 1.2303515211 0)
(-1.90269556703 1.18987594412 0)
(-2.10453093163 1.14643874989 0)
(-2.29943058872 1.10193634912 0)
(-2.48529074837 1.05805127996 0)
(-2.66050235873 1.01563483529 0)
(-2.82441568081 0.974712154564 0)
(-2.97752141229 0.934756952492 0)
(-3.12110840818 0.894647830323 0)
(-3.25651339268 0.852294930638 0)
(-3.38443349641 0.804687602812 0)
(-3.50474491339 0.749009030653 0)
(-3.61684508359 0.684396121797 0)
(-3.72011302625 0.612997837482 0)
(-3.81405833828 0.539264320768 0)
(-3.89809411075 0.467722388948 0)
(-3.97125055977 0.400683511787 0)
(-4.03219820516 0.337387813273 0)
(-4.07966158251 0.275040825761 0)
(-4.11296327455 0.210922355417 0)
(-4.13233622802 0.144141668343 0)
(-4.13883119451 0.0759738429793 0)
(-0.0457196498914 1.8439024081 0)
(-0.265223598109 1.7552489568 0)
(-0.449662134888 1.68899223248 0)
(-0.655513740659 1.62465361019 0)
(-0.863860636649 1.57831347096 0)
(-1.07502766437 1.54290923358 0)
(-1.28678083869 1.51133986768 0)
(-1.49842598727 1.47816148401 0)
(-1.70925176766 1.44039158539 0)
(-1.91829334751 1.39704476976 0)
(-2.12405710494 1.34877286866 0)
(-2.3245131349 1.29718159691 0)
(-2.51732653711 1.24404814651 0)
(-2.70035249467 1.19085742033 0)
(-2.87221369527 1.13872109518 0)
(-3.03261152651 1.08822691874 0)
(-3.1821357962 1.03885252467 0)
(-3.32171775052 0.988356774947 0)
(-3.45214962332 0.933103588486 0)
(-3.57396274268 0.869702088993 0)
(-3.6875488772 0.797060309934 0)
(-3.79316572641 0.7172887597 0)
(-3.89064273278 0.634629887495 0)
(-3.97900232782 0.553098346795 0)
(-4.05641521566 0.474461255512 0)
(-4.12070467562 0.397839638778 0)
(-4.17018455091 0.320987761147 0)
(-4.20433421809 0.242215090423 0)
(-4.22391022962 0.161663170302 0)
(-4.23047637186 0.0812177669135 0)
(-0.0438615769521 2.0241750392 0)
(-0.266547552774 1.94695848521 0)
(-0.453295846839 1.89075192479 0)
(-0.661730442454 1.83285988382 0)
(-0.872736511402 1.78978791007 0)
(-1.08616552734 1.75550309794 0)
(-1.29947563949 1.72393918127 0)
(-1.5119579791 1.69027496053 0)
(-1.72326645481 1.65156078549 0)
(-1.93306180254 1.60640095704 0)
(-2.14052330559 1.55481017724 0)
(-2.34412399657 1.49777872439 0)
(-2.54171578501 1.43680143387 0)
(-2.73096635357 1.37367118593 0)
(-2.90994199169 1.31036556025 0)
(-3.07748797918 1.2485063694 0)
(-3.23322406009 1.18830092832 0)
(-3.37732146314 1.12776388446 0)
(-3.51036710262 1.0632526534 0)
(-3.6333796112 0.991375535295 0)
(-3.74770993305 0.911013390632 0)
(-3.85455586004 0.823915455433 0)
(-3.95420184659 0.733434242184 0)
(-4.04548432161 0.642422140517 0)
(-4.12596729435 0.55184067527 0)
(-4.19286145174 0.46091493495 0)
(-4.24419436931 0.368456978818 0)
(-4.27955574923 0.27426527533 0)
(-4.30002592942 0.179665219106 0)
(-4.30741933569 0.0869496820877 0)
(-0.0412446301928 2.20410219034 0)
(-0.263759706743 2.1400093202 0)
(-0.451780958677 2.09478475147 0)
(-0.662817034339 2.04418631257 0)
(-0.877557609245 2.00458155784 0)
(-1.09492529178 1.97095919581 0)
(-1.3115744532 1.93849962744 0)
(-1.52628085792 1.90341703397 0)
(-1.73867187194 1.86323442069 0)
(-1.94884083282 1.81643094379 0)
(-2.15668609976 1.76242718885 0)
(-2.36145717073 1.70141439205 0)
(-2.5616239908 1.63426536634 0)
(-2.75512915049 1.56265772971 0)
(-2.93982923273 1.48899756423 0)
(-3.11384430776 1.41560589435 0)
(-3.27573299446 1.34336539403 0)
(-3.42466525666 1.27090173386 0)
(-3.56072027319 1.19524739772 0)
(-3.68510371652 1.1136941078 0)
(-3.79987534382 1.02540968018 0)
(-3.90703664169 0.931573013057 0)
(-4.00738028876 0.834092184946 0)
(-4.0998309241 0.734125232077 0)
(-4.18177111299 0.631611170882 0)
(-4.25020944042 0.526019367319 0)
(-4.30310264253 0.41753208787 0)
(-4.34008093312 0.307673994025 0)
(-4.36224682673 0.198968078757 0)
(-4.3712945363 0.0939163894217 0)
(-0.0383724503982 2.38091262142 0)
(-0.257358849559 2.33235125011 0)
(-0.445002482841 2.30024673918 0)
(-0.657823577466 2.25892417223 0)
(-0.876520622839 2.22391956893 0)
(-1.09897286687 2.19107251458 0)
(-1.32074101363 2.15692329607 0)
(-1.53963523612 2.11909987234 0)
(-1.75473639102 2.07612143543 0)
(-1.96612075181 2.02681929757 0)
(-2.1741518889 1.97031817604 0)
(-2.37887530863 1.90608227247 0)
(-2.57966833528 1.83419911967 0)
(-2.7752099008 1.7558342796 0)
(-2.96362640312 1.67325110514 0)
(-3.14267426077 1.58890882217 0)
(-3.31002541248 1.50409024168 0)
(-3.46382242851 1.41823032659 0)
(-3.60341741751 1.32962882063 0)
(-3.7298198571 1.23691690343 0)
(-3.84534206573 1.13992052634 0)
(-3.95242722442 1.03921423943 0)
(-4.05228854972 0.934977983171 0)
(-4.14420331892 0.826403366388 0)
(-4.22588965591 0.712299449365 0)
(-4.29468288572 0.592402981327 0)
(-4.34876024814 0.468285489532 0)
(-4.38772887351 0.343117774452 0)
(-4.4123666924 0.220453816631 0)
(-4.42382393255 0.102837426884 0)
(-0.0360578058907 2.55273662465 0)
(-0.249299090735 2.52198409367 0)
(-0.434879391139 2.50571948703 0)
(-0.648026550918 2.47639217489 0)
(-0.86977346024 2.4480276003 0)
(-1.09725738786 2.41694795506 0)
(-1.32501338344 2.38095667315 0)
(-1.54969326533 2.33927500573 0)
(-1.76939616977 2.29185005417 0)
(-1.98363359652 2.23840239873 0)
(-2.1927389464 2.17825897594 0)
(-2.39726131435 2.11051466099 0)
(-2.59748085171 2.03458947958 0)
(-2.79308487 1.95091914509 0)
(-2.98292651588 1.86108058599 0)
(-3.16491693848 1.76700564148 0)
(-3.33629777863 1.66991418344 0)
(-3.494455087 1.57001147961 0)
(-3.63798831538 1.46719976708 0)
(-3.76735202343 1.3618990173 0)
(-3.88452803944 1.25491789611 0)
(-3.99184219578 1.14637967657 0)
(-4.0906627902 1.03482359244 0)
(-4.18077719963 0.917581329903 0)
(-4.26072329041 0.792408101668 0)
(-4.32870914747 0.659223170822 0)
(-4.38346548311 0.520678084709 0)
(-4.42456381661 0.381150175301 0)
(-4.45216427619 0.244855263654 0)
(-4.46650080384 0.11424878492 0)
(-0.0350815114003 2.71938541894 0)
(-0.242322092701 2.70771847978 0)
(-0.424726963355 2.70968343728 0)
(-0.636531688584 2.6950327509 0)
(-0.859416055805 2.67581489653 0)
(-1.09042113825 2.64833150959 0)
(-1.32351103943 2.6113098087 0)
(-1.55436671855 2.5654356104 0)
(-1.77994923914 2.51225637262 0)
(-1.99877192857 2.45279979784 0)
(-2.21057085252 2.38714561308 0)
(-2.4158674366 2.31457784603 0)
(-2.61549525775 2.23425030491 0)
(-2.81007430716 2.14593344765 0)
(-2.99941120034 2.05018651471 0)
(-3.18206206389 1.94784621119 0)
(-3.35546835738 1.8395513263 0)
(-3.5168180833 1.72600386056 0)
(-3.66420900215 1.6086668586 0)
(-3.79735280555 1.48981970805 0)
(-3.91735254128 1.37139199739 0)
(-4.02577773906 1.25333442597 0)
(-4.12373178274 1.13301483895 0)
(-4.21148062574 1.00643976488 0)
(-4.28868540393 0.870630954405 0)
(-4.35484990375 0.725558286478 0)
(-4.40956885988 0.57437314947 0)
(-4.45245638364 0.421904826018 0)
(-4.4829329003 0.272477649161 0)
(-4.50012933888 0.12835169362 0)
(-0.0358553863045 2.88258094716 0)
(-0.239044167045 2.88970425483 0)
(-0.418224783793 2.91108711682 0)
(-0.627421131682 2.91287489328 0)
(-0.849100008396 2.90505801311 0)
(-1.08098102314 2.8834264251 0)
(-1.31717868 2.84711987437 0)
(-1.55296044743 2.79784526558 0)
(-1.78437703742 2.73856636511 0)
(-2.00881100285 2.67175473135 0)
(-2.22497682877 2.59865906156 0)
(-2.43278013891 2.5193379839 0)
(-2.63300684797 2.43324945448 0)
(-2.82675809312 2.33984155597 0)
(-3.01464773998 2.23866263546 0)
(-3.19612676535 2.12919508318 0)
(-3.3694270152 2.01112607605 0)
(-3.53224143085 1.88525724583 0)
(-3.68267237059 1.75418831977 0)
(-3.81978173457 1.62166013524 0)
(-3.9434775226 1.49054997389 0)
(-4.05405286315 1.36091368262 0)
(-4.15188505456 1.22969054887 0)
(-4.23748329247 1.09245901437 0)
(-4.31163535695 0.946078803727 0)
(-4.37529021198 0.790484536818 0)
(-4.42909409617 0.628628781651 0)
(-4.47286606725 0.464871395781 0)
(-4.50541305202 0.302984658326 0)
(-4.5248683664 0.144923722855 0)
(-0.0382553272711 3.0455705558 0)
(-0.241134495251 3.06957423993 0)
(-0.418319533041 3.1098625797 0)
(-0.624642890889 3.12826548489 0)
(-0.843204172029 3.13308819756 0)
(-1.07301550017 3.11931113234 0)
(-1.30908719911 3.08596676276 0)
(-1.54704453426 3.03514141946 0)
(-1.78261099481 2.97069516471 0)
(-2.01230168263 2.89631709928 0)
(-2.23371451972 2.81454655471 0)
(-2.44572244947 2.72662631329 0)
(-2.64842215184 2.63286321199 0)
(-2.84270182471 2.53288463248 0)
(-3.02947092632 2.42557860097 0)
(-3.20895352818 2.30924816396 0)
(-3.38049135803 2.18259390885 0)
(-3.54288406567 2.0461788641 0)
(-3.69484118031 1.90306505846 0)
(-3.83514236747 1.75764610503 0)
(-3.96255634386 1.61322620833 0)
(-4.07591097148 1.4701046209 0)
(-4.17454011712 1.32559902767 0)
(-4.25884274555 1.17592148355 0)
(-4.33040973156 1.01850546386 0)
(-4.39141239287 0.853287921204 0)
(-4.44350427261 0.682412767355 0)
(-4.48688623166 0.508912894387 0)
(-4.52010984698 0.335378003549 0)
(-4.5407268401 0.163328929107 0)
(-0.041674119965 3.2122592296 0)
(-0.248799951348 3.25013736661 0)
(-0.426306673289 3.30718474312 0)
(-0.630809137457 3.3406007041 0)
(-0.845574206773 3.35775174676 0)
(-1.07111246477 3.35284344691 0)
(-1.30382006587 3.32447199637 0)
(-1.540405013 3.27447595215 0)
(-1.77703148113 3.20690667919 0)
(-2.0099633117 3.12612501098 0)
(-2.23600260654 3.03571840483 0)
(-2.45293543316 2.93818636812 0)
(-2.65974002995 2.83499451902 0)
(-2.85640500987 2.72641402068 0)
(-3.04342607463 2.61124205868 0)
(-3.22132579512 2.48718817888 0)
(-3.39045960114 2.35234773716 0)
(-3.55098434567 2.2069374079 0)
(-3.70266740301 2.05378605664 0)
(-3.84450289535 1.89693705159 0)
(-3.97454989377 1.73935871313 0)
(-4.09043780558 1.58151586909 0)
(-4.19046305553 1.42173449204 0)
(-4.27460582191 1.25779701909 0)
(-4.34470777324 1.08842492452 0)
(-4.40358331002 0.913730695436 0)
(-4.45356011958 0.734718524685 0)
(-4.4953089002 0.552551231132 0)
(-4.52760118207 0.368206991247 0)
(-4.5480386711 0.182633101603 0)
(-0.0452325007004 3.3861192504 0)
(-0.260679741593 3.43466462755 0)
(-0.441306444369 3.50530847356 0)
(-0.646187347595 3.55073332739 0)
(-0.858097897198 3.57826996673 0)
(-1.07874881757 3.58174397967 0)
(-1.3059546145 3.55932716037 0)
(-1.53791206912 3.51222978037 0)
(-1.77191047498 3.44404477165 0)
(-2.00474024045 3.35911245541 0)
(-2.23307570628 3.2615237537 0)
(-2.4539942367 3.15471621399 0)
(-2.66533402982 3.04124184455 0)
(-2.86577935724 2.92224037129 0)
(-3.05477666468 2.79699196317 0)
(-3.23249412901 2.66343176696 0)
(-3.39980518675 2.51976843441 0)
(-3.55798526817 2.36607204888 0)
(-3.70793138393 2.20446031738 0)
(-3.84925021471 2.03774291516 0)
(-3.97993964568 1.8677852775 0)
(-4.09711057745 1.69495938648 0)
(-4.19842605702 1.51887095199 0)
(-4.28334794615 1.33939523925 0)
(-4.35338362982 1.1569973493 0)
(-4.41120840388 0.972201847542 0)
(-4.45924963663 0.784920295174 0)
(-4.49856765464 0.594401358314 0)
(-4.5285749092 0.399936921341 0)
(-4.5475826903 0.201793381463 0)
(-0.0480482969449 3.5691971058 0)
(-0.274190996965 3.62594969315 0)
(-0.460354619686 3.70696735971 0)
(-0.668309056115 3.76084237576 0)
(-0.87970628761 3.79564524 0)
(-1.09675563627 3.80546625082 0)
(-1.31823134731 3.78843241594 0)
(-1.54373297504 3.74514552991 0)
(-1.77200659052 3.67838512342 0)
(-2.00102101628 3.59188163311 0)
(-2.22811112021 3.48957099668 0)
(-2.45035054298 3.37520883307 0)
(-2.66487148272 3.25196088966 0)
(-2.86912289713 3.12169417116 0)
(-3.06121826629 2.98452485568 0)
(-3.24041544509 2.83938873962 0)
(-3.40739931472 2.68543424523 0)
(-3.5638883138 2.52302748447 0)
(-3.71150991358 2.35346561316 0)
(-3.8505762002 2.17785949132 0)
(-3.97963298419 1.99649228102 0)
(-4.09614486676 1.80934757977 0)
(-4.19784901064 1.61717551165 0)
(-4.28387619702 1.42187494355 0)
(-4.35500032609 1.22565498237 0)
(-4.41302741619 1.02962260322 0)
(-4.45983311298 0.832987956597 0)
(-4.4966132909 0.633579859086 0)
(-4.52362502761 0.429351297214 0)
(-4.54035290911 0.219869758532 0)
(-0.0494840168836 3.76153062025 0)
(-0.286283263103 3.82544783489 0)
(-0.47921561889 3.91451868085 0)
(-0.692532054746 3.97377503359 0)
(-0.906388560227 4.01242509901 0)
(-1.1226476261 4.02550565413 0)
(-1.34025193049 4.01172689445 0)
(-1.55963518068 3.97150449896 0)
(-1.78082640025 3.90688056337 0)
(-2.00322733733 3.82071618533 0)
(-2.22542959063 3.71627094921 0)
(-2.44527042338 3.59691601144 0)
(-2.65992418765 3.46570031654 0)
(-2.86616705516 3.32472870401 0)
(-3.06101873291 3.17494294983 0)
(-3.24264005165 3.01673171873 0)
(-3.41090989376 2.85081016965 0)
(-3.56712095162 2.67833007332 0)
(-3.71286673275 2.50002450763 0)
(-3.84886840003 2.31542175323 0)
(-3.97453281535 2.12325769334 0)
(-4.0884141432 1.92298608653 0)
(-4.18908191735 1.71606701318 0)
(-4.27575048953 1.50578211803 0)
(-4.34839840711 1.29557162192 0)
(-4.40755226973 1.08710500182 0)
(-4.45404195022 0.879464675712 0)
(-4.48885293231 0.669946646963 0)
(-4.51298170903 0.455866185511 0)
(-4.52716952031 0.236206008783 0)
(-0.0493202595034 3.96118961805 0)
(-0.294407171713 4.0328182805 0)
(-0.493736977302 4.12915643667 0)
(-0.713498748106 4.19209457774 0)
(-0.932384302152 4.23187695265 0)
(-1.15123162612 4.24497495344 0)
(-1.36832019396 4.23133704905 0)
(-1.58406985885 4.19186069656 0)
(-1.79915978017 4.12832538964 0)
(-2.01415518252 4.04289592268 0)
(-2.22904445025 3.93797942809 0)
(-2.44293301108 3.81604684315 0)
(-2.65380411239 3.67931059248 0)
(-2.85862968596 3.52945615897 0)
(-3.05406846531 3.36788844183 0)
(-3.23751126863 3.19640911676 0)
(-3.40779287147 3.01745670438 0)
(-3.5650708442 2.83324933597 0)
(-3.71006126384 2.64441612791 0)
(-3.84330592888 2.44954972077 0)
(-3.96495217862 2.24643934931 0)
(-4.07493986659 2.03416798429 0)
(-4.17316210654 1.81439481026 0)
(-4.25937466954 1.59080534911 0)
(-4.33304985065 1.36718107235 0)
(-4.39351205714 1.14549392712 0)
(-4.44041671552 0.925221404087 0)
(-4.47423985176 0.704102531308 0)
(-4.49632500402 0.479659130744 0)
(-4.50830794248 0.250534094094 0)
(-0.0478103160063 4.1649515436 0)
(-0.297350940858 4.24606627752 0)
(-0.501248548625 4.3505059693 0)
(-0.726953425561 4.41719250174 0)
(-0.95212193546 4.45685681516 0)
(-1.17629539455 4.46754574351 0)
(-1.39652644066 4.45089784307 0)
(-1.61241511562 4.40895451784 0)
(-1.82444125721 4.343914837 0)
(-2.03363278373 4.25777685678 0)
(-2.2409738486 4.15233020059 0)
(-2.44683982411 4.02902031353 0)
(-2.65047436078 3.88880764467 0)
(-2.84987705364 3.73241981797 0)
(-3.04231772671 3.56118739874 0)
(-3.22518082937 3.3778141804 0)
(-3.39654034092 3.18603474708 0)
(-3.55518651741 2.98900285205 0)
(-3.70040205809 2.78765232905 0)
(-3.83193188719 2.58055759746 0)
(-3.95017213145 2.36555226547 0)
(-4.0561712107 2.14182354901 0)
(-4.15112883181 1.91088466693 0)
(-4.23560795717 1.67587995267 0)
(-4.30906828711 1.43997094662 0)
(-4.37016844694 1.20499626592 0)
(-4.41769941752 0.97108709365 0)
(-4.45150782324 0.73712945885 0)
(-4.47274682657 0.501547098987 0)
(-4.48324941668 0.262963102647 0)
(-0.0455824337089 4.36937697398 0)
(-0.295584036387 4.4622414939 0)
(-0.501405338305 4.57676078616 0)
(-0.7311429632 4.64880253594 0)
(-0.962086235044 4.68879202953 0)
(-1.19268349634 4.69612930809 0)
(-1.41866131715 4.67424915395 0)
(-1.63834080685 4.62675606726 0)
(-1.8512751208 4.5568894123 0)
(-2.05810575092 4.46713907091 0)
(-2.26001999132 4.35920660706 0)
(-2.45813138777 4.23381625415 0)
(-2.6528627412 4.09075193017 0)
(-2.84367733448 3.9296344354 0)
(-3.02926907414 3.75128209271 0)
(-3.20791449901 3.5585375317 0)
(-3.37763487854 3.35553803257 0)
(-3.53623040233 3.14579447363 0)
(-3.6815727169 2.93067473018 0)
(-3.8122931818 2.7095503114 0)
(-3.9284339232 2.48132155166 0)
(-4.03142538985 2.2459179512 0)
(-4.12321425175 2.00467311134 0)
(-4.20506855284 1.75963888521 0)
(-4.27687477839 1.51268747215 0)
(-4.33737612069 1.26507876446 0)
(-4.38512234791 1.0174947415 0)
(-4.41944849103 0.770133817612 0)
(-4.44085633171 0.522613242933 0)
(-4.45062096086 0.273839518885 0)
(-0.0434007343644 4.57187416208 0)
(-0.290934762851 4.67841376041 0)
(-0.496092963122 4.80530002845 0)
(-0.72719648225 4.88510086354 0)
(-0.961834853824 4.92717569874 0)
(-1.19792307229 4.93181450116 0)
(-1.43023031837 4.90401028584 0)
(-1.65584198343 4.8489833055 0)
(-1.87306269193 4.7713438244 0)
(-2.08149771348 4.67458223856 0)
(-2.28167910052 4.56088580164 0)
(-2.47460388803 4.4308409132 0)
(-2.66127665701 4.28360558231 0)
(-2.84246031407 4.11805450776 0)
(-3.01855708473 3.93439821551 0)
(-3.18935754151 3.73493357354 0)
(-3.3536440792 3.52317029209 0)
(-3.50907363565 3.30213338633 0)
(-3.65276983772 3.07339613703 0)
(-3.78247322109 2.83751536297 0)
(-3.89750741398 2.59510435385 0)
(-3.99886196472 2.34735626681 0)
(-4.08835077618 2.09567001078 0)
(-4.16746345388 1.84102840077 0)
(-4.2366432899 1.58389580167 0)
(-4.29530871525 1.32469863704 0)
(-4.34241088342 1.06428052472 0)
(-4.37707588378 0.803742994802 0)
(-4.39898161373 0.54369432264 0)
(-4.40837715858 0.283522959288 0)
(-0.0418666594591 4.77133912311 0)
(-0.285737421609 4.89253497219 0)
(-0.488452196399 5.03353458016 0)
(-0.718358731827 5.12334792725 0)
(-0.953787188095 5.16977719297 0)
(-1.19278148406 5.17349956297 0)
(-1.42980473457 5.14062053929 0)
(-1.66119289497 5.07769775364 0)
(-1.88418567696 4.99066058783 0)
(-2.09715329144 4.88415452982 0)
(-2.29940268905 4.76120482401 0)
(-2.49100176282 4.62285260052 0)
(-2.67268410169 4.46843480405 0)
(-2.84581327525 4.29684370673 0)
(-3.01210138294 4.1080102972 0)
(-3.17287417245 3.90337299176 0)
(-3.32819150873 3.68506082331 0)
(-3.4765084059 3.45485689373 0)
(-3.61526915868 3.21408203395 0)
(-3.74208485097 2.96431606207 0)
(-3.85569307558 2.7078807685 0)
(-3.95615051321 2.44735104594 0)
(-4.04434406638 2.18450705432 0)
(-4.12130914986 1.91976305239 0)
(-4.18775818372 1.65262645221 0)
(-4.2438965576 1.38276141474 0)
(-4.28940988577 1.11072382532 0)
(-4.32355411322 0.837773484855 0)
(-4.34539378719 0.56495352388 0)
(-4.35421439584 0.292186686031 0)
(-0.0411937324755 4.96814642511 0)
(-0.281844878724 5.10386184303 0)
(-0.481493690173 5.2596497196 0)
(-0.708475739921 5.36081012227 0)
(-0.941953827258 5.41347568327 0)
(-1.18059221085 5.41836313325 0)
(-1.41919663454 5.38224143239 0)
(-1.65404367741 5.31256212703 0)
(-1.88187397642 5.21621321509 0)
(-2.10011647947 5.09875532849 0)
(-2.30678946992 4.96402935892 0)
(-2.50061032667 4.81387580136 0)
(-2.68132105707 4.64854293438 0)
(-2.84996989317 4.46780725401 0)
(-3.00865607202 4.27193662729 0)
(-3.15960386987 4.06168244641 0)
(-3.30408794245 3.83762938352 0)
(-3.44195415134 3.60001560222 0)
(-3.57198372145 3.34950656765 0)
(-3.69266918095 3.08813708452 0)
(-3.80279501404 2.81928421288 0)
(-3.90160285687 2.54647764934 0)
(-3.98874559821 2.27198875176 0)
(-4.0642660295 1.9962998241 0)
(-4.12857105428 1.71872735255 0)
(-4.18221424041 1.43855775555 0)
(-4.22545900064 1.15581867724 0)
(-4.25789348282 0.871264890082 0)
(-4.27846848737 0.585786511822 0)
(-4.28608485387 0.299772672694 0)
(-0.041172250958 5.16356238492 0)
(-0.27996958032 5.31282374073 0)
(-0.476953362215 5.48297203623 0)
(-0.70044880898 5.59558643992 0)
(-0.930219146165 5.65535319651 0)
(-1.16569584154 5.66294771292 0)
(-1.40242014585 5.62553122027 0)
(-1.63720149164 5.55105144107 0)
(-1.8669505651 5.44687657481 0)
(-2.08876294717 5.31898002702 0)
(-2.29979410338 5.17165190199 0)
(-2.49754648203 5.00750914272 0)
(-2.680506269 4.82809263043 0)
(-2.84869189411 4.6346758562 0)
(-3.00355207381 4.42847512687 0)
(-3.14718129591 4.21008656232 0)
(-3.28143228721 3.97903250635 0)
(-3.40750195009 3.73434785005 0)
(-3.52600098546 3.47598274715 0)
(-3.63709310038 3.20579609106 0)
(-3.74044608178 2.92721795779 0)
(-3.83516854151 2.64386876024 0)
(-3.92003773717 2.35823312154 0)
(-3.99401455622 2.07122534517 0)
(-4.05667659893 1.78263781126 0)
(-4.10819740277 1.49190136688 0)
(-4.14887283392 1.19864529548 0)
(-4.1785923446 0.902917467931 0)
(-4.19672320284 0.605176440781 0)
(-4.20256791746 0.30616725601 0)
(-0.0413494651918 5.35891462835 0)
(-0.279650459886 5.52047283355 0)
(-0.474901706383 5.70386168917 0)
(-0.695352958904 5.82701424636 0)
(-0.920958339736 5.89357436585 0)
(-1.15171640288 5.9043582786 0)
(-1.38393134597 5.86690999346 0)
(-1.61521756759 5.7894773025 0)
(-1.84313293638 5.6795205005 0)
(-2.06506013647 5.54289207577 0)
(-2.27797439 5.38381287712 0)
(-2.47876114006 5.2053543991 0)
(-2.66494136932 5.01027705494 0)
(-2.83529988984 4.80146790126 0)
(-2.98994403629 4.58139908204 0)
(-3.1298904062 4.35111459911 0)
(-3.2566695144 4.10997064489 0)
(-3.37219425604 3.85668247656 0)
(-3.4786371694 3.59088476645 0)
(-3.57798320188 3.31392169649 0)
(-3.67135474771 3.02838799695 0)
(-3.75859095279 2.73703514198 0)
(-3.83844293036 2.44194240993 0)
(-3.90926053462 2.14430699539 0)
(-3.9696933351 1.84460949694 0)
(-4.01900336952 1.54282406125 0)
(-4.05694993363 1.23862617047 0)
(-4.08351100497 0.93173142705 0)
(-4.09874079019 0.622356112479 0)
(-4.10287397857 0.311527272629 0)
(-0.0413283021827 5.55494899001 0)
(-0.279819673975 5.72783206 0)
(-0.474230796591 5.92324401263 0)
(-0.692569177856 6.05552875477 0)
(-0.914585534646 6.12769565883 0)
(-1.14045437347 6.14104742347 0)
(-1.3669748041 6.10372553525 0)
(-1.59247009333 6.02431917107 0)
(-1.81525916254 5.91021018936 0)
(-2.03337444331 5.76677989436 0)
(-2.24422763306 5.5977605905 0)
(-2.44484892237 5.40626537682 0)
(-2.63246834465 5.19585377753 0)
(-2.80499080076 4.97063402508 0)
(-2.96112080491 4.73419202361 0)
(-3.10036866263 4.4884005745 0)
(-3.22323943803 4.23335786051 0)
(-3.33148110271 3.96851783936 0)
(-3.42793996316 3.69391265636 0)
(-3.51580629388 3.41048833995 0)
(-3.59758036089 3.11961931994 0)
(-3.6743493225 2.82255584626 0)
(-3.74571399668 2.52030086248 0)
(-3.81025609846 2.21376231847 0)
(-3.86620110584 1.903782275 0)
(-3.91199878497 1.59094959523 0)
(-3.94671386039 1.27548213783 0)
(-3.97020646597 0.95746714706 0)
(-3.98308624924 0.637391544804 0)
(-3.98645017559 0.316547929569 0)
(-0.0410078307632 5.7516799805 0)
(-0.279618177111 5.9354743016 0)
(-0.473679855891 6.14204988282 0)
(-0.690751451997 6.28211326583 0)
(-0.910144828662 6.35833844195 0)
(-1.13185075568 6.37288723923 0)
(-1.35279341706 6.33481245255 0)